/*--------------------------------*- C++ -*----------------------------------*\
  =========                 |
  \\      /  F ield         | OpenFOAM: The Open Source CFD Toolbox
   \\    /   O peration     | Website:  https://openfoam.org
    \\  /    A nd           | Version:  dev
     \\/     M anipulation  |
\*---------------------------------------------------------------------------*/
FoamFile
{
    version     2.0;
    format      ascii;
    class       volScalarField;
    location    "1";
    object      alphat.water;
}
// * * * * * * * * * * * * * * * * * * * * * * * * * * * * * * * * * * * * * //

dimensions      [1 -1 -1 0 0 0 0];

internalField   nonuniform List<scalar> 
1875
(
0.0859629
2.5424e-06
5.76614e-07
6.02148e-07
5.82415e-07
6.03683e-07
5.73135e-07
6.18173e-07
5.65392e-07
5.89636e-07
5.5175e-07
5.85273e-07
5.68205e-07
5.84065e-07
5.86537e-07
5.77917e-07
5.6907e-07
5.72563e-07
5.72189e-07
5.73606e-07
5.73926e-07
5.79574e-07
5.79419e-07
1.80345e-06
0.0828226
0.0953713
0.000108689
2.75498e-06
2.0813e-06
2.73489e-06
3.19684e-06
2.78666e-06
2.28042e-06
2.48424e-06
3.25274e-06
3.08244e-06
2.31126e-06
2.40344e-06
2.84774e-06
2.75953e-06
2.24779e-06
2.19197e-06
2.08024e-06
1.96009e-06
1.93902e-06
1.94733e-06
1.96794e-06
2.02175e-06
8.17789e-05
0.103938
0.0725618
0.000207913
1.30816e-05
5.22234e-06
1.4378e-05
2.74244e-05
2.19004e-05
7.43651e-06
8.82569e-06
2.46504e-05
3.41933e-05
1.90594e-05
1.16451e-05
1.35394e-05
1.29507e-05
8.27934e-06
6.00405e-06
5.33082e-06
5.09254e-06
5.05867e-06
5.09707e-06
5.12611e-06
5.33906e-06
0.000307065
0.0792922
0.0307438
0.000342213
8.41582e-05
1.67427e-05
0.000114046
0.000193426
0.00017516
3.35795e-05
3.67981e-05
0.000139725
0.000189563
0.000165887
8.4226e-05
7.57452e-05
7.88679e-05
5.82546e-05
3.04596e-05
1.72043e-05
1.48518e-05
1.47727e-05
1.53061e-05
1.54635e-05
1.60758e-05
0.000451194
0.0590019
0.02313
0.0010575
0.000168533
7.12148e-05
0.000195248
0.000135326
0.000179165
0.000121969
0.000143871
0.000133475
9.97215e-05
0.000138267
0.000163832
0.000172939
0.000188122
0.000158339
0.000131615
7.26298e-05
5.83536e-05
5.79523e-05
6.14613e-05
6.25514e-05
6.47792e-05
0.000823304
0.0488152
0.0174439
0.00136583
0.000163931
0.000119798
9.66099e-05
2.50245e-05
4.11314e-05
0.000126083
0.000169813
4.24847e-05
2.37721e-05
4.65462e-05
0.000104994
0.00014016
0.000171548
0.000151575
0.000136471
0.000116095
0.000111897
0.000112884
0.00012225
0.000128191
0.000133859
0.00113594
0.0452206
0.0180465
0.00151757
7.3408e-05
0.00011631
2.16379e-05
1.36254e-05
1.7356e-05
0.000101755
0.000128862
2.59585e-05
1.74706e-05
3.51547e-05
5.78867e-05
6.49132e-05
5.65473e-05
7.70018e-05
0.000100252
0.00013321
0.000167449
0.000179613
0.000187396
0.000189017
0.000195226
0.00191191
0.0460607
0.0195779
0.00132119
3.3432e-05
0.000115639
1.38516e-05
1.5334e-05
1.59943e-05
7.61595e-05
5.70705e-05
2.25314e-05
2.09877e-05
2.99849e-05
2.7406e-05
2.32697e-05
1.80628e-05
2.31634e-05
5.79703e-05
0.000113513
0.000171386
0.00019767
0.000200938
0.00019778
0.000201172
0.00267783
0.0509443
0.0209761
0.0012152
1.71664e-05
0.000102764
1.54303e-05
2.28591e-05
2.477e-05
5.59528e-05
2.97643e-05
2.24528e-05
2.63458e-05
3.23332e-05
2.32768e-05
1.66482e-05
1.19465e-05
1.35451e-05
2.78013e-05
9.14355e-05
0.000162755
0.000187524
0.00018065
0.0001662
0.000140684
0.00453859
0.0661518
0.0285308
0.00142289
2.28913e-05
5.56462e-05
1.8514e-05
1.87672e-05
2.46223e-05
3.99586e-05
2.24373e-05
1.75352e-05
2.15555e-05
2.94794e-05
2.54819e-05
2.65817e-05
1.23576e-05
1.11293e-05
1.64235e-05
5.75644e-05
0.000121951
0.000119195
7.90755e-05
5.68495e-05
9.04198e-05
0.00861128
0.0955974
0.0339361
0.00191081
0.000278672
3.55442e-05
1.32032e-05
1.85457e-05
2.23218e-05
3.35192e-05
1.65596e-05
1.72825e-05
2.1434e-05
2.2677e-05
2.74191e-05
3.20461e-05
1.34802e-05
9.05845e-06
1.13041e-05
2.56945e-05
4.52574e-05
3.4828e-05
2.49895e-05
2.14356e-05
0.000124262
0.0179191
0.124093
0.0317172
0.00311274
0.000746832
5.05692e-05
1.44819e-05
2.57658e-05
2.69007e-05
2.40052e-05
1.40443e-05
2.32424e-05
2.08011e-05
1.82501e-05
2.53748e-05
2.14888e-05
8.02787e-06
6.30981e-06
9.51456e-06
1.46171e-05
1.98419e-05
1.70923e-05
1.55381e-05
2.22321e-05
0.000524042
0.0431352
0.143635
0.0262205
0.015051
0.000966419
4.46563e-05
1.94863e-05
3.52951e-05
1.56809e-05
1.61934e-05
2.40101e-05
3.12136e-05
1.78933e-05
1.49779e-05
2.7894e-05
1.27548e-05
8.55926e-06
8.01185e-06
8.96856e-06
1.02921e-05
1.31148e-05
1.34406e-05
1.40543e-05
4.24596e-05
0.0026912
0.0789313
0.155883
0.0296731
0.0378429
0.00051936
2.46309e-05
2.82647e-05
2.84945e-05
9.23708e-06
1.3892e-05
4.6113e-05
2.8655e-05
1.21061e-05
1.27394e-05
2.79446e-05
1.21399e-05
1.01642e-05
8.43194e-06
7.83664e-06
9.32118e-06
1.16087e-05
1.25208e-05
1.4095e-05
0.000148936
0.0111055
0.11591
0.164271
0.0408221
0.0338475
0.000600064
1.68985e-05
3.32746e-05
2.63315e-05
8.1227e-06
1.45932e-05
4.65837e-05
2.68449e-05
1.14386e-05
1.04924e-05
2.66388e-05
1.08189e-05
9.45348e-06
8.19744e-06
7.7602e-06
9.38585e-06
1.0625e-05
1.11333e-05
1.3045e-05
0.000284756
0.0214109
0.137205
0.169938
0.0711138
0.0361139
0.00174468
1.5492e-05
3.25739e-05
3.37053e-05
9.8597e-06
1.46447e-05
4.18074e-05
2.80433e-05
1.21238e-05
1.11694e-05
2.67411e-05
9.97425e-06
8.47825e-06
7.78959e-06
8.2818e-06
9.50696e-06
9.53732e-06
9.39709e-06
1.10868e-05
0.000271988
0.0263107
0.129419
0.160306
0.0999872
0.0695746
0.00441693
1.28185e-05
3.29384e-05
3.99667e-05
1.20096e-05
1.43353e-05
4.30448e-05
2.9362e-05
1.35876e-05
1.39413e-05
2.59772e-05
9.39748e-06
7.97323e-06
7.74828e-06
8.50758e-06
9.39993e-06
8.71894e-06
8.46752e-06
9.14695e-06
9.82636e-05
0.0204288
0.0794825
0.0908761
0.109944
0.102142
0.00812872
1.20447e-05
2.91976e-05
4.72995e-05
1.71286e-05
1.45673e-05
4.40984e-05
3.15464e-05
1.50431e-05
1.72865e-05
2.6194e-05
9.11474e-06
7.81555e-06
7.65346e-06
8.43135e-06
9.2547e-06
8.47302e-06
8.25333e-06
8.47349e-06
1.23242e-05
0.0031754
0.0200786
0.0298539
0.11916
0.120298
0.0116709
1.49185e-05
2.77569e-05
4.81806e-05
2.10963e-05
1.51374e-05
4.59901e-05
3.39274e-05
1.70193e-05
1.9204e-05
2.54247e-05
8.81512e-06
7.56699e-06
7.48722e-06
7.87952e-06
8.6885e-06
8.56866e-06
8.40727e-06
8.54136e-06
7.84053e-06
4.14006e-05
0.00245423
0.013379
0.133396
0.132479
0.0146869
2.29857e-05
2.71916e-05
5.31065e-05
2.13088e-05
1.67599e-05
4.74043e-05
3.57102e-05
2.03515e-05
2.07887e-05
2.43907e-05
8.17502e-06
7.33128e-06
7.17069e-06
7.40732e-06
7.79141e-06
8.40937e-06
8.34584e-06
8.01645e-06
7.49846e-06
8.20903e-06
0.000385021
0.00975095
0.152892
0.133585
0.0143886
3.03893e-05
2.70173e-05
5.52379e-05
2.18392e-05
1.78418e-05
4.91238e-05
3.78055e-05
2.30623e-05
2.27791e-05
2.26935e-05
7.67696e-06
7.20046e-06
6.9756e-06
7.1499e-06
7.2027e-06
7.59894e-06
8.12669e-06
7.5132e-06
7.48704e-06
7.34774e-06
0.000220043
0.016624
0.172862
0.128448
0.0135341
3.48016e-05
2.69861e-05
5.74313e-05
2.29208e-05
1.82832e-05
5.09125e-05
4.01591e-05
2.51222e-05
2.41617e-05
2.07512e-05
7.20118e-06
7.12744e-06
6.80002e-06
6.92635e-06
6.90494e-06
7.08132e-06
7.30794e-06
7.20579e-06
7.42646e-06
7.22723e-06
0.000219586
0.0249169
0.184619
0.118555
0.0106732
3.67299e-05
2.61616e-05
6.14193e-05
2.37753e-05
1.7844e-05
5.20284e-05
4.38288e-05
2.66301e-05
2.56294e-05
1.95808e-05
6.86113e-06
6.8362e-06
6.55779e-06
6.5479e-06
6.61139e-06
6.78879e-06
7.01816e-06
6.95395e-06
7.33757e-06
7.01954e-06
0.000263695
0.0350585
0.188337
0.1047
0.00758003
3.42211e-05
2.47775e-05
6.43176e-05
2.29352e-05
1.66752e-05
5.25791e-05
4.70731e-05
2.76098e-05
2.71484e-05
1.90773e-05
6.4116e-06
6.44573e-06
6.26124e-06
6.20434e-06
6.8438e-06
7.92816e-06
8.72447e-06
8.02773e-06
8.62951e-06
8.06155e-06
0.000395265
0.0454743
0.187289
0.0858828
0.00419756
2.5135e-05
2.38379e-05
6.64699e-05
2.08022e-05
1.54122e-05
5.51336e-05
5.23231e-05
2.83432e-05
2.91638e-05
1.97517e-05
6.14885e-06
6.156e-06
6.23848e-06
6.19047e-06
9.20262e-06
1.20096e-05
1.34271e-05
1.21061e-05
1.27873e-05
1.2367e-05
0.000604252
0.0587134
0.177654
0.0612868
0.00162771
1.65218e-05
2.33445e-05
6.73024e-05
1.84269e-05
1.38513e-05
5.70834e-05
5.77163e-05
2.83152e-05
3.14938e-05
2.15707e-05
5.85469e-06
5.86782e-06
6.04455e-06
6.16914e-06
1.29387e-05
1.52383e-05
1.6254e-05
1.54127e-05
1.57943e-05
1.56943e-05
0.000825573
0.072325
0.14959
0.0344375
0.000395971
1.14036e-05
2.21212e-05
6.73346e-05
1.60973e-05
1.06786e-05
5.62821e-05
6.37781e-05
2.77819e-05
3.32043e-05
2.57498e-05
6.0425e-06
5.388e-06
5.50104e-06
6.59016e-06
1.47907e-05
1.66359e-05
1.71364e-05
1.67295e-05
1.70234e-05
1.73167e-05
0.000941772
0.0822888
0.129496
0.0164221
7.76221e-05
8.81192e-06
2.01131e-05
6.83617e-05
1.41747e-05
7.73244e-06
5.40563e-05
6.94829e-05
2.66289e-05
3.36264e-05
3.03022e-05
7.4477e-06
4.87794e-06
4.90456e-06
8.70673e-06
1.5651e-05
1.69502e-05
1.72567e-05
1.70813e-05
1.74107e-05
1.77636e-05
0.000926558
0.0876998
0.116482
0.00760968
2.39852e-05
6.23481e-06
1.75427e-05
7.16184e-05
1.28834e-05
6.39606e-06
5.291e-05
7.58252e-05
2.52799e-05
3.25564e-05
3.46904e-05
1.03298e-05
5.35148e-06
5.64276e-06
1.14048e-05
1.63031e-05
1.69601e-05
1.7269e-05
1.72427e-05
1.76469e-05
1.79574e-05
0.000818773
0.0899715
0.107888
0.00420256
1.64787e-05
4.98664e-06
1.61278e-05
7.69136e-05
1.26289e-05
5.21484e-06
5.45498e-05
8.26675e-05
2.42274e-05
3.02695e-05
3.70192e-05
1.29435e-05
8.44935e-06
8.89489e-06
1.29442e-05
1.64234e-05
1.675e-05
1.72002e-05
1.73147e-05
1.77923e-05
1.80615e-05
0.000696148
0.0909696
0.102217
0.00338203
1.44058e-05
3.95103e-06
1.53943e-05
8.31839e-05
1.37998e-05
5.65729e-06
5.87236e-05
8.8613e-05
2.39858e-05
2.75855e-05
3.74923e-05
1.49542e-05
1.14063e-05
1.12638e-05
1.40534e-05
1.59233e-05
1.62727e-05
1.68625e-05
1.7125e-05
1.76553e-05
1.79277e-05
0.000577453
0.0911296
0.101068
0.00338929
1.38234e-05
3.60847e-06
1.52645e-05
8.93807e-05
1.59077e-05
8.02615e-06
6.4776e-05
9.13536e-05
2.46688e-05
2.52052e-05
3.67605e-05
1.7211e-05
1.35955e-05
1.3016e-05
1.46014e-05
1.5293e-05
1.5769e-05
1.64273e-05
1.68193e-05
1.73622e-05
1.76637e-05
0.00046829
0.091068
0.103244
0.00376715
1.45218e-05
4.94989e-06
1.59784e-05
9.48823e-05
1.83576e-05
9.52258e-06
7.01628e-05
9.0648e-05
2.62558e-05
2.3822e-05
3.56152e-05
1.94605e-05
1.51759e-05
1.41691e-05
1.48651e-05
1.51245e-05
1.57088e-05
1.63393e-05
1.67991e-05
1.73486e-05
1.77018e-05
0.000372646
0.0907156
0.105975
0.00424142
1.62098e-05
7.09325e-06
1.73599e-05
9.99464e-05
2.0693e-05
1.11823e-05
7.527e-05
8.87678e-05
2.85005e-05
2.38504e-05
3.4804e-05
2.13636e-05
1.62842e-05
1.49214e-05
1.53819e-05
1.55407e-05
1.62152e-05
1.67817e-05
1.72967e-05
1.78428e-05
1.82644e-05
0.000292983
0.0899379
0.107068
0.0045065
1.89504e-05
8.99289e-06
1.95837e-05
0.000107802
2.25644e-05
1.29928e-05
7.98828e-05
8.80132e-05
3.15274e-05
2.45934e-05
3.48132e-05
2.32401e-05
1.72823e-05
1.55981e-05
1.61604e-05
1.63082e-05
1.70845e-05
1.75644e-05
1.81328e-05
1.86476e-05
1.91472e-05
0.000227332
0.0883712
0.105151
0.00440711
2.21647e-05
1.13509e-05
2.20167e-05
0.000117122
2.45057e-05
1.41868e-05
8.07537e-05
8.84049e-05
3.55683e-05
2.57126e-05
3.57194e-05
2.5222e-05
1.81863e-05
1.62121e-05
1.70022e-05
1.70997e-05
1.79978e-05
1.83774e-05
1.90001e-05
1.94661e-05
2.0048e-05
0.000173279
0.0855974
0.0995917
0.00399697
2.54256e-05
1.32674e-05
2.42765e-05
0.000124963
2.72836e-05
1.48538e-05
7.98734e-05
8.888e-05
4.13896e-05
2.76009e-05
3.76242e-05
2.78545e-05
1.91779e-05
1.69181e-05
1.79393e-05
1.79196e-05
1.8951e-05
1.92419e-05
1.99174e-05
2.03404e-05
2.10144e-05
0.000131111
0.0813222
0.0909957
0.00330587
2.87585e-05
1.46355e-05
2.64778e-05
0.000129547
3.10155e-05
1.5932e-05
7.89643e-05
8.94379e-05
4.8601e-05
3.07921e-05
4.03431e-05
3.15872e-05
2.07835e-05
1.80712e-05
1.93219e-05
1.91191e-05
2.02956e-05
2.0508e-05
2.1266e-05
2.16526e-05
2.24439e-05
0.000101445
0.0755842
0.0801195
0.00253457
3.24263e-05
1.61836e-05
2.85551e-05
0.00013259
3.51252e-05
1.75976e-05
8.073e-05
8.97997e-05
5.75662e-05
3.54579e-05
4.37165e-05
3.62546e-05
2.32785e-05
1.99814e-05
2.14412e-05
2.10345e-05
2.23612e-05
2.24568e-05
2.33708e-05
2.37382e-05
2.4665e-05
8.2686e-05
0.0682962
0.067793
0.0018627
3.67104e-05
1.80855e-05
3.24455e-05
0.000136099
4.09708e-05
1.99692e-05
8.67053e-05
9.13413e-05
6.79885e-05
4.12874e-05
4.72845e-05
4.18533e-05
2.64152e-05
2.25622e-05
2.42519e-05
2.3585e-05
2.50972e-05
2.49921e-05
2.61471e-05
2.6476e-05
2.75802e-05
7.22005e-05
0.0593231
0.0543343
0.00137249
4.20344e-05
2.10217e-05
3.77507e-05
0.000136772
4.80951e-05
2.3353e-05
9.67602e-05
9.47636e-05
7.95539e-05
4.76568e-05
5.13063e-05
4.8001e-05
3.00026e-05
2.55362e-05
2.75164e-05
2.65965e-05
2.82682e-05
2.79483e-05
2.93584e-05
2.96669e-05
3.09543e-05
6.80306e-05
0.0486868
0.0400338
0.00101038
4.79047e-05
2.44564e-05
4.43522e-05
0.000140535
5.66358e-05
2.73793e-05
0.00010464
0.000101614
9.35741e-05
5.5457e-05
5.60566e-05
5.53302e-05
3.41427e-05
2.92272e-05
3.13201e-05
3.02466e-05
3.19822e-05
3.15821e-05
3.31119e-05
3.34503e-05
3.48979e-05
6.91142e-05
0.0369261
0.0263528
0.000795022
5.84762e-05
2.89995e-05
5.72035e-05
0.000236326
6.88285e-05
3.30632e-05
0.000269497
0.000162924
0.000109634
6.61987e-05
6.67854e-05
6.47885e-05
3.95445e-05
3.40155e-05
3.63608e-05
3.48822e-05
3.69093e-05
3.62705e-05
3.80672e-05
3.8289e-05
4.00681e-05
7.55211e-05
0.0253058
0.0155689
0.000985738
9.28939e-05
3.58781e-05
0.000131557
0.000585501
9.35052e-05
4.10491e-05
0.000682861
0.000485286
0.00013901
7.97399e-05
0.000137178
7.52927e-05
4.67621e-05
4.05048e-05
4.31116e-05
4.12544e-05
4.35557e-05
4.26774e-05
4.47225e-05
4.48885e-05
4.69458e-05
8.65281e-05
0.0156361
0.0102111
0.00128269
0.000296671
4.49601e-05
0.000589258
0.000753605
0.000241384
5.29674e-05
0.000786068
0.00074288
0.000312938
0.000112714
0.000488181
0.000104229
5.63735e-05
4.92544e-05
5.19006e-05
4.97544e-05
5.21993e-05
5.11774e-05
5.3417e-05
5.36235e-05
5.59504e-05
0.000102726
0.0104005
0.0102038
0.00131039
0.000699315
7.51586e-05
0.000791802
0.000770033
0.000658336
0.000122451
0.000793129
0.000772434
0.000696894
0.000339557
0.000756593
0.000327369
9.1935e-05
7.77928e-05
7.97372e-05
7.50988e-05
7.8899e-05
7.7285e-05
8.11333e-05
8.231e-05
8.6234e-05
0.000178278
0.0101649
0.0106368
0.00131194
0.000791215
0.000315896
0.000798618
0.000770625
0.00078296
0.000501089
0.000790615
0.000773197
0.000780926
0.00070332
0.000783983
0.000723965
0.000352411
0.000298137
0.000294902
0.000274277
0.000286203
0.000280367
0.000294347
0.000302162
0.000315506
0.000689588
0.0106688
0.0106949
0.00131161
0.000793762
0.000701028
0.000794526
0.000770032
0.000788762
0.000748192
0.000787034
0.000772183
0.000783855
0.000765533
0.000782636
0.000793885
0.000719111
0.000687365
0.000684107
0.000673688
0.000678926
0.000676104
0.000682546
0.00068679
0.000701679
0.0012407
0.0107467
0.0106813
0.00131855
0.000790354
0.000763506
0.000790376
0.000769501
0.000786124
0.000767798
0.000784038
0.000771332
0.000781446
0.000768266
0.000779984
0.000793065
0.000775592
0.000762013
0.000761699
0.000761051
0.000761323
0.000761138
0.000761518
0.000762075
0.000774635
0.00130279
0.0107329
0.0106619
0.00133154
0.00078717
0.000766351
0.000786521
0.000769003
0.000783078
0.000768137
0.000781275
0.000770565
0.000779037
0.000767918
0.000777573
0.000788758
0.000776674
0.000765954
0.000765895
0.00076585
0.000765841
0.000765825
0.00076584
0.000766145
0.000778002
0.00129262
0.0107137
0.0106397
0.00133845
0.000784048
0.00076633
0.000783112
0.000768642
0.000780285
0.000767702
0.000778674
0.000769921
0.00077698
0.000767496
0.000775507
0.000785145
0.000775081
0.000766121
0.000766074
0.000766058
0.000766034
0.000766011
0.000765992
0.00076627
0.000777856
0.00128542
0.010693
0.0106138
0.00134238
0.000780942
0.000766177
0.00077988
0.00076826
0.000777718
0.000767245
0.00077621
0.000769323
0.000775005
0.000767083
0.000773696
0.000781795
0.000773436
0.000766107
0.000766048
0.000766047
0.000766016
0.000765988
0.000765979
0.000766225
0.00077738
0.00127951
0.010672
0.0105849
0.00134582
0.000778063
0.000766065
0.000776681
0.00076776
0.000775205
0.000766828
0.000773879
0.000768635
0.000773118
0.000766685
0.000771948
0.000778562
0.000771852
0.000766097
0.000766046
0.000766021
0.00076598
0.000765966
0.000765966
0.000766185
0.000776619
0.00126543
0.0106526
0.0105666
0.00135252
0.000775465
0.000766025
0.000773776
0.000767391
0.000772838
0.000766518
0.0007718
0.000768052
0.000771381
0.000766361
0.000770384
0.000775503
0.000770496
0.0007661
0.000766045
0.000765985
0.00076596
0.000765944
0.000765942
0.000766139
0.000776028
0.00124944
0.0106334
0.0105351
0.00137104
0.000773303
0.000766036
0.000771452
0.000767257
0.000770868
0.000766327
0.000770078
0.000767748
0.000769884
0.000766154
0.000769201
0.000772945
0.00076945
0.00076611
0.000766036
0.000765967
0.000765949
0.000765908
0.000765894
0.000766086
0.000775507
0.00124146
0.0106143
0.0104906
0.00137535
0.000771579
0.000766066
0.000769612
0.000767194
0.000769255
0.00076623
0.000768713
0.00076759
0.000768719
0.00076602
0.000768293
0.000771011
0.000768723
0.000766131
0.00076601
0.000765958
0.000765926
0.000765883
0.000765867
0.000766035
0.000774704
0.00122841
0.0105965
0.010446
0.0013679
0.000770137
0.000766056
0.000768154
0.000767068
0.000767948
0.000766097
0.0007676
0.000767319
0.000767796
0.000765901
0.000767502
0.000769524
0.000768086
0.000766139
0.000765983
0.000765934
0.000765889
0.000765862
0.000765841
0.000765984
0.000773903
0.00120942
0.0105786
0.0104136
0.00132503
0.000768818
0.00076597
0.000767082
0.000766745
0.000766986
0.000765894
0.000766768
0.000766911
0.000767045
0.000765812
0.000766849
0.000768299
0.000767425
0.000766126
0.000765959
0.000765905
0.000765857
0.000765831
0.000765802
0.000765922
0.00077327
0.0011954
0.0105626
0.0103931
0.00120359
0.000767704
0.000765768
0.000766386
0.000766334
0.00076636
0.000765731
0.000766235
0.000766475
0.000766496
0.000765754
0.000766364
0.000767324
0.000766844
0.000766063
0.000765904
0.000765868
0.000765827
0.000765785
0.000765765
0.000765862
0.000772573
0.00118216
0.0105469
0.0103777
0.00109026
0.00076695
0.000765639
0.000765987
0.000766032
0.000766
0.00076564
0.00076592
0.000766127
0.000766145
0.000765715
0.000766031
0.00076664
0.000766407
0.000765935
0.000765846
0.000765812
0.000765775
0.000765748
0.000765739
0.000765822
0.000771774
0.00116346
0.0105326
0.010348
0.00102221
0.000766525
0.000765587
0.000765775
0.000765838
0.000765808
0.000765609
0.000765756
0.000765906
0.000765921
0.000765691
0.000765841
0.000766194
0.000766083
0.000765838
0.000765788
0.000765756
0.000765734
0.000765718
0.000765706
0.000765784
0.000771104
0.00114624
0.0105189
0.0102979
0.000992356
0.000766314
0.000765579
0.000765671
0.000765719
0.000765707
0.000765608
0.000765673
0.00076577
0.000765779
0.00076567
0.000765745
0.000765923
0.000765877
0.000765764
0.000765727
0.000765711
0.000765695
0.00076568
0.000765671
0.000765746
0.000770474
0.00113031
0.0105069
0.0102579
0.000980245
0.000766211
0.000765582
0.000765626
0.00076565
0.000765655
0.000765608
0.000765636
0.000765686
0.000765696
0.000765648
0.000765685
0.000765771
0.000765759
0.000765706
0.000765683
0.000765673
0.000765655
0.000765651
0.000765646
0.000765714
0.000769873
0.00111427
0.0104963
0.0102433
0.000975942
0.000766168
0.000765581
0.000765606
0.000765611
0.000765627
0.000765606
0.000765613
0.000765633
0.000765645
0.000765631
0.000765643
0.000765689
0.000765684
0.000765657
0.000765653
0.000765644
0.000765628
0.000765626
0.000765628
0.00076568
0.000769348
0.00109968
0.0104866
0.0102412
0.000974631
0.000766148
0.000765581
0.000765598
0.000765593
0.000765608
0.000765595
0.0007656
0.000765605
0.000765614
0.000765614
0.000765616
0.000765639
0.000765632
0.000765622
0.000765631
0.000765618
0.000765616
0.000765609
0.00076561
0.000765648
0.000768911
0.00108793
0.0104776
0.0102386
0.00097441
0.000766134
0.000765582
0.000765593
0.000765584
0.000765591
0.000765584
0.000765594
0.000765592
0.000765596
0.000765594
0.000765601
0.000765611
0.000765607
0.000765604
0.000765613
0.0007656
0.000765614
0.000765599
0.000765594
0.000765622
0.000768509
0.00107784
0.0104698
0.0102409
0.000974483
0.000766124
0.000765578
0.000765591
0.000765572
0.000765576
0.000765577
0.000765588
0.000765582
0.000765582
0.000765578
0.000765588
0.000765591
0.000765595
0.000765598
0.000765593
0.000765584
0.000765613
0.000765595
0.000765581
0.000765605
0.000768109
0.00106427
0.0104632
0.010257
0.000974876
0.000766127
0.000765566
0.000765592
0.000765566
0.000765566
0.000765569
0.000765585
0.000765572
0.000765573
0.000765569
0.000765578
0.000765578
0.000765589
0.000765592
0.000765577
0.000765574
0.000765606
0.00076559
0.000765574
0.000765591
0.000767806
0.00105326
0.0104566
0.0102671
0.000975661
0.000766133
0.000765562
0.000765592
0.000765564
0.000765561
0.000765565
0.000765583
0.000765566
0.000765567
0.000765566
0.000765567
0.00076557
0.000765585
0.000765587
0.000765569
0.000765572
0.000765594
0.000765586
0.000765569
0.00076558
0.000767605
0.0010464
0.0104514
0.01031
0.00097676
0.000766135
0.000765561
0.000765585
0.000765563
0.000765561
0.000765563
0.000765579
0.000765563
0.000765566
0.000765564
0.000765563
0.000765567
0.000765574
0.000765585
0.000765564
0.000765569
0.000765577
0.000765584
0.000765563
0.000765573
0.000767372
0.00103601
0.0104468
0.0102622
0.000976975
0.000766137
0.000765559
0.000765565
0.000765561
0.000765555
0.000765559
0.000765565
0.000765558
0.000765559
0.000765563
0.000765562
0.000765561
0.000765568
0.000765578
0.000765561
0.000765567
0.000765565
0.000765578
0.000765558
0.000765568
0.000767204
0.00103168
0.0104414
0.0103848
0.000978302
0.000766139
0.000765556
0.000765557
0.000765558
0.000765557
0.000765555
0.000765559
0.00076556
0.000765559
0.000765558
0.000765562
0.000765559
0.00076556
0.000765565
0.000765555
0.00076556
0.000765559
0.000765565
0.000765553
0.000765563
0.000767041
0.00102383
0.0104469
0.0102681
0.000978229
0.000766139
0.000765555
0.000765556
0.000765558
0.000765558
0.000765552
0.000765558
0.000765561
0.000765561
0.000765555
0.000765562
0.000765559
0.00076555
0.000765558
0.000765556
0.000765553
0.000765557
0.000765559
0.000765552
0.000765559
0.000766872
0.00101666
0.0104062
0.0104452
0.000979515
0.000766139
0.000765553
0.000765555
0.000765557
0.000765558
0.000765552
0.000765558
0.000765561
0.000765561
0.000765555
0.000765561
0.000765559
0.000765551
0.000765558
0.000765557
0.000765553
0.000765556
0.000765558
0.000765553
0.000765559
0.000766836
0.00101578
0.0104867
0.0103176
0.000978421
0.000765651
0.000765064
0.00076507
0.000765072
0.000765074
0.000765064
0.000765077
0.000765082
0.000765083
0.000765077
0.000765083
0.000765088
0.000765078
0.000765089
0.000765094
0.000765088
0.000765094
0.000765097
0.000765091
0.000765097
0.000766205
0.00100954
0.0103884
)
;

boundaryField
{
    inlet
    {
        type            calculated;
        value           nonuniform List<scalar> 
25
(
0.000866617
0.000866617
0.000866617
0.000866617
0.000866617
0.000866617
0.000866617
0.000866617
0.000866617
0.000866617
0.000866617
0.000866617
0.000866617
0.000866617
0.000866617
0.000866617
0.000866617
0.000866617
0.000866617
0.000866617
0.000866617
0.000866617
0.000866617
0.000866617
0.000866617
)
;
    }
    outlet
    {
        type            calculated;
        value           nonuniform List<scalar> 
25
(
0.0103176
0.000978421
0.000765651
0.000765064
0.00076507
0.000765072
0.000765074
0.000765064
0.000765077
0.000765082
0.000765083
0.000765077
0.000765083
0.000765088
0.000765078
0.000765089
0.000765094
0.000765088
0.000765094
0.000765097
0.000765091
0.000765097
0.000766205
0.00100954
0.0103884
)
;
    }
    walls
    {
        type            compressible::alphatWallFunction;
        Prt             0.85;
        value           nonuniform List<scalar> 
150
(
0.020871
0.0235087
0.0220554
0.0177723
0.0168325
0.0155631
0.0157227
0.0159371
0.016277
0.0175276
0.0184841
0.0183315
0.0178431
0.0185096
0.0199112
0.0229258
0.0252433
0.0259788
0.0265921
0.0273583
0.0282107
0.0290614
0.0295521
0.0299118
0.0299706
0.0288648
0.0248946
0.0218917
0.0200847
0.0190435
0.0184213
0.0181427
0.0180956
0.0180781
0.0178957
0.0173619
0.0164297
0.0151149
0.0134618
0.0115403
0.00941044
0.00717962
0.00496725
0.00305783
0.00180001
0.00133282
0.00124974
0.00123196
0.00122835
0.00122538
0.00122179
0.0012179
0.00121424
0.0012108
0.0012064
0.001201
0.00119527
0.00119059
0.00118738
0.00118531
0.0011831
0.00118042
0.00117885
0.00117851
0.00117857
0.00117883
0.00117943
0.00118071
0.00118177
0.00118309
0.00118386
0.00118511
0.00118539
0.00118633
0.00118708
0.0208778
0.0242996
0.0223541
0.0203134
0.0194386
0.0189434
0.0190148
0.0194514
0.0207971
0.0233248
0.0258703
0.0277139
0.0288087
0.0294143
0.0298319
0.0288268
0.0220547
0.0153831
0.0126519
0.0118556
0.0133703
0.0144716
0.0152613
0.0159351
0.0168849
0.0177548
0.0182671
0.0184289
0.018372
0.0181826
0.0179218
0.0176155
0.0172451
0.0167942
0.0162273
0.0155054
0.0145928
0.0134785
0.0121424
0.0105626
0.00875988
0.0068125
0.00484694
0.0030921
0.00187013
0.00136432
0.00126328
0.0012414
0.00123697
0.00123404
0.00123102
0.00122803
0.00122526
0.00122252
0.00121983
0.00121734
0.00121483
0.00121261
0.00121045
0.00120845
0.00120658
0.00120494
0.00120349
0.00120213
0.00120092
0.00119986
0.00119893
0.00119807
0.0011973
0.00119675
0.00119612
0.00119566
0.00119519
0.00119504
0.00119424
)
;
    }
    frontAndBack
    {
        type            empty;
    }
}


// ************************************************************************* //
