/*--------------------------------*- C++ -*----------------------------------*\
  =========                 |
  \\      /  F ield         | OpenFOAM: The Open Source CFD Toolbox
   \\    /   O peration     | Website:  https://openfoam.org
    \\  /    A nd           | Version:  dev
     \\/     M anipulation  |
\*---------------------------------------------------------------------------*/
FoamFile
{
    version     2.0;
    format      ascii;
    class       volScalarField;
    location    "1";
    object      alpha.airMean;
}
// * * * * * * * * * * * * * * * * * * * * * * * * * * * * * * * * * * * * * //

dimensions      [0 0 0 0 0 0 0];

internalField   nonuniform List<scalar> 
1875
(
0.237906
0.257859
0.247188
0.249944
0.246751
0.26155
0.24752
0.25604
0.244197
0.260811
0.25239
0.252207
0.247725
0.259428
0.250983
0.243954
0.241333
0.242974
0.242646
0.244048
0.243552
0.244659
0.244785
0.245749
0.243222
0.322
0.328497
0.327014
0.324773
0.327259
0.331206
0.327261
0.330128
0.324602
0.331557
0.329536
0.328402
0.326023
0.329913
0.327371
0.323709
0.321588
0.323129
0.324053
0.324098
0.323699
0.323028
0.322551
0.322172
0.322311
0.325475
0.331176
0.327403
0.326686
0.326855
0.329986
0.327935
0.331117
0.326953
0.329117
0.328697
0.330583
0.327354
0.329275
0.329284
0.32985
0.325149
0.324225
0.323778
0.324072
0.324024
0.324228
0.32412
0.324286
0.323846
0.316527
0.322068
0.316578
0.317275
0.31652
0.318781
0.317522
0.321394
0.317015
0.317996
0.317883
0.320552
0.31742
0.318558
0.319952
0.324464
0.318109
0.315099
0.314065
0.314301
0.314294
0.314529
0.314482
0.314721
0.314116
0.304854
0.309572
0.302661
0.305767
0.307349
0.30603
0.304268
0.309597
0.30332
0.304809
0.304229
0.309353
0.304122
0.305765
0.308447
0.312585
0.307283
0.303402
0.3016
0.30178
0.301692
0.30213
0.301974
0.302376
0.301607
0.293034
0.295615
0.289195
0.294622
0.294648
0.294497
0.29085
0.296989
0.290294
0.291173
0.290641
0.2972
0.290782
0.292021
0.297516
0.300194
0.296636
0.292064
0.289415
0.289542
0.289398
0.289873
0.289717
0.290104
0.289621
0.280949
0.28068
0.275171
0.283079
0.279433
0.279881
0.276831
0.284793
0.277127
0.276869
0.276896
0.285306
0.276461
0.277106
0.285172
0.287029
0.284252
0.280363
0.276798
0.276848
0.276589
0.277216
0.27697
0.277428
0.277324
0.269262
0.265197
0.260847
0.271363
0.265178
0.262978
0.263108
0.272385
0.263187
0.260038
0.262043
0.272851
0.261064
0.259995
0.272131
0.275087
0.27193
0.26883
0.264847
0.264706
0.264413
0.264959
0.264752
0.265238
0.265154
0.257482
0.248392
0.245202
0.260475
0.250381
0.239684
0.243664
0.26037
0.248184
0.228269
0.238116
0.259691
0.242772
0.238677
0.259542
0.262176
0.259204
0.256725
0.252713
0.252512
0.252157
0.252702
0.252371
0.252883
0.252921
0.246008
0.230582
0.228402
0.248762
0.235152
0.196115
0.219041
0.247368
0.233624
0.182995
0.206014
0.246645
0.216015
0.20746
0.245832
0.250515
0.246849
0.244464
0.240819
0.240534
0.240199
0.240765
0.240328
0.240926
0.240624
0.23417
0.2111
0.210327
0.237256
0.218686
0.153536
0.195047
0.237546
0.217647
0.147763
0.17633
0.236258
0.179098
0.171019
0.232645
0.237857
0.234833
0.231966
0.228835
0.228528
0.228296
0.228793
0.228359
0.228921
0.227749
0.222685
0.190565
0.185039
0.226607
0.197678
0.129616
0.176091
0.228505
0.196613
0.127188
0.156601
0.226008
0.14609
0.153175
0.221401
0.226375
0.22301
0.2196
0.216832
0.216589
0.21643
0.216853
0.216454
0.216995
0.214117
0.211441
0.169832
0.151831
0.215953
0.16978
0.113931
0.163166
0.217527
0.168646
0.114259
0.147402
0.214196
0.126469
0.150367
0.210823
0.214086
0.210719
0.206976
0.204821
0.204635
0.204599
0.204934
0.204617
0.204644
0.199535
0.200723
0.149643
0.123291
0.205365
0.143141
0.103457
0.154034
0.205109
0.141594
0.105416
0.144296
0.200957
0.116199
0.149548
0.201255
0.202569
0.198441
0.194589
0.193115
0.192815
0.192888
0.193194
0.192853
0.192034
0.184383
0.18982
0.131532
0.106148
0.193107
0.12533
0.0949941
0.142853
0.191983
0.119157
0.0990401
0.141252
0.18693
0.108295
0.147284
0.190793
0.190673
0.18635
0.182508
0.181657
0.181006
0.181185
0.181102
0.180637
0.179494
0.168227
0.178999
0.118625
0.0938243
0.182795
0.113971
0.0863733
0.130645
0.179636
0.104159
0.0934783
0.135436
0.171876
0.101267
0.141962
0.179373
0.17945
0.174359
0.170769
0.170139
0.169039
0.169141
0.168854
0.168926
0.1671
0.150433
0.167793
0.111705
0.085083
0.173348
0.107838
0.0769029
0.116016
0.168422
0.0942734
0.0875409
0.126816
0.156744
0.0941888
0.134948
0.168405
0.167984
0.163976
0.159074
0.158189
0.156607
0.156807
0.156644
0.157918
0.154725
0.12804
0.156905
0.105843
0.078948
0.162995
0.103376
0.0675814
0.101618
0.157613
0.085805
0.0799659
0.116871
0.142193
0.0868836
0.126684
0.157118
0.157052
0.153505
0.147895
0.146399
0.144341
0.144865
0.144761
0.145431
0.142863
0.107315
0.145759
0.0987354
0.0735258
0.152468
0.0975408
0.060052
0.090895
0.146461
0.0777709
0.0713156
0.105402
0.128335
0.0792371
0.117873
0.14625
0.145656
0.142218
0.137004
0.134769
0.13221
0.133022
0.13265
0.133043
0.130875
0.0959977
0.134735
0.0899652
0.0691181
0.141905
0.0903245
0.0535745
0.0830813
0.135253
0.0699831
0.0625934
0.092806
0.114881
0.0714521
0.10892
0.135193
0.134878
0.1307
0.125065
0.122999
0.120007
0.120984
0.120218
0.120451
0.118059
0.0882537
0.123566
0.0803087
0.0640535
0.131768
0.0825166
0.0474435
0.0755843
0.124675
0.0625371
0.0541549
0.0802196
0.101352
0.0639469
0.0999171
0.124591
0.123859
0.119539
0.112733
0.11085
0.107651
0.108603
0.107527
0.107836
0.104988
0.0804681
0.11236
0.0704602
0.0586771
0.121992
0.074626
0.0415298
0.0679253
0.115058
0.05566
0.0462628
0.0684854
0.0876283
0.0569083
0.0909208
0.113831
0.113358
0.108205
0.100546
0.098277
0.0951402
0.0960186
0.0948693
0.0950966
0.0918779
0.0723187
0.100888
0.0606849
0.0533375
0.11255
0.0669153
0.0359802
0.0600528
0.106089
0.0493234
0.0388972
0.0575769
0.0743019
0.0501668
0.0819982
0.10341
0.102613
0.097209
0.0882808
0.0856006
0.0823505
0.08342
0.0821424
0.0823242
0.0786236
0.0638656
0.0891747
0.0512605
0.0482883
0.103484
0.0594574
0.0310307
0.0524657
0.0976398
0.0436181
0.0323513
0.0477773
0.0622436
0.0437114
0.0732342
0.092925
0.0922777
0.0862728
0.0760186
0.0727169
0.0695183
0.070712
0.0693388
0.0694187
0.0655397
0.0558738
0.0771268
0.0422752
0.0435144
0.094865
0.0522326
0.0266768
0.0454363
0.0894599
0.0385023
0.0267499
0.0394398
0.0519691
0.0373767
0.0645327
0.0827478
0.0818681
0.0756426
0.0637989
0.0604314
0.0576566
0.0584761
0.0571504
0.0569735
0.0542129
0.0487953
0.0646835
0.0338975
0.0389948
0.0866233
0.0455606
0.0227818
0.039053
0.0812949
0.0339003
0.0220737
0.0326455
0.0434825
0.0312119
0.0559123
0.0726248
0.0717669
0.0652159
0.0532347
0.0506117
0.048485
0.0485426
0.0474083
0.046979
0.0458073
0.0426467
0.0521255
0.0265695
0.0347021
0.0786026
0.0395282
0.0192712
0.0331191
0.0728977
0.0295599
0.0181679
0.027174
0.0365105
0.0253154
0.0473221
0.0626992
0.0617064
0.0550339
0.0453649
0.043478
0.0418791
0.0414294
0.0404877
0.0400039
0.039708
0.0372078
0.041268
0.0208613
0.0308084
0.0705439
0.0340482
0.0161035
0.0274805
0.0639877
0.0252901
0.0148777
0.0227174
0.0307456
0.0200228
0.0389095
0.0528364
0.0517679
0.0454281
0.0391307
0.0378573
0.0366364
0.0360606
0.0352549
0.034852
0.0347863
0.0323157
0.0335576
0.0167688
0.0270805
0.0620403
0.0289104
0.0132422
0.0221428
0.0546501
0.0209609
0.0120616
0.0189817
0.0259061
0.0155926
0.0310641
0.0430538
0.041914
0.0370741
0.033683
0.0329115
0.0319697
0.0314444
0.0307477
0.0304456
0.0303775
0.0278718
0.0282893
0.0137276
0.0229758
0.0531684
0.0239814
0.010686
0.0172683
0.0452811
0.0166777
0.00964283
0.0157766
0.0217693
0.0121037
0.0243676
0.0337838
0.0327851
0.0302715
0.0288303
0.0283651
0.0276315
0.0271996
0.0266058
0.026382
0.0262736
0.0238333
0.0241611
0.0111876
0.0184124
0.0442992
0.0191885
0.008432
0.0130445
0.0359942
0.0126391
0.00757696
0.0129751
0.0181688
0.00940231
0.0192364
0.0262753
0.0256292
0.0249219
0.0244855
0.0241525
0.0235761
0.0232328
0.0227375
0.0225664
0.0224316
0.0201699
0.0205318
0.00894451
0.0137755
0.035449
0.0146465
0.00647928
0.00967511
0.0274197
0.0091712
0.00583842
0.0105133
0.014995
0.0072761
0.0155287
0.021032
0.0206962
0.0206885
0.0205654
0.020278
0.0198259
0.0195505
0.0191456
0.0190063
0.018868
0.0168628
0.0172114
0.00698067
0.00959931
0.0268184
0.010601
0.00482544
0.00718991
0.0206072
0.00647712
0.00439764
0.00835399
0.0121722
0.00556047
0.0126793
0.0172618
0.0170983
0.0171278
0.0170273
0.0167551
0.0164071
0.0161788
0.0158533
0.0157334
0.0156083
0.0138946
0.0141606
0.00531357
0.00638714
0.0193157
0.00735327
0.00346613
0.00538907
0.0157969
0.00450469
0.00322008
0.00648194
0.00966935
0.00415963
0.0102534
0.0141343
0.0140738
0.0139748
0.0138534
0.0135959
0.0133369
0.0131416
0.0128843
0.0127785
0.0126737
0.0112527
0.0113655
0.0039368
0.00420504
0.0138281
0.00500345
0.00239016
0.00402757
0.0123704
0.00306696
0.0022742
0.00488367
0.0074804
0.00301792
0.00809187
0.0113355
0.0113523
0.0111485
0.0110385
0.0108032
0.0106188
0.01045
0.0102506
0.010158
0.0100738
0.00892602
0.00883527
0.00281611
0.00277861
0.0102071
0.00337203
0.00157205
0.0029541
0.00967246
0.00200983
0.00153461
0.00354696
0.00560748
0.00210155
0.00617367
0.00881704
0.00889376
0.0086495
0.00858089
0.00837433
0.00824972
0.00810554
0.00795471
0.00787606
0.0078093
0.00690533
0.00660101
0.00191742
0.00181105
0.00768408
0.00221302
0.000975281
0.00209467
0.00736888
0.00124308
0.000977836
0.00246023
0.00404726
0.00138585
0.00451752
0.00660732
0.00672443
0.00649551
0.00647427
0.00630029
0.00622148
0.00610148
0.0059906
0.00592627
0.00587319
0.0051804
0.00470269
0.00121754
0.00113481
0.00568469
0.00137569
0.000560946
0.00141326
0.0053621
0.000709985
0.000579158
0.00161028
0.00278867
0.00085043
0.00314281
0.00474275
0.0048755
0.00469277
0.00470732
0.00456745
0.00452208
0.00442562
0.00434672
0.0042964
0.00425366
0.0037396
0.00316248
0.000702635
0.00066992
0.00400294
0.00078255
0.000290905
0.000889575
0.00366033
0.000357076
0.000309982
0.00097494
0.00181224
0.000473896
0.00205329
0.00323537
0.00335945
0.00323091
0.00326391
0.00315794
0.00313532
0.00306133
0.00300736
0.0029699
0.00293521
0.00256892
0.00197709
0.000356301
0.000363212
0.00260972
0.000390244
0.000128748
0.000504417
0.00229543
0.000151626
0.000140041
0.000533381
0.00109163
0.000231044
0.00123646
0.00206943
0.00216936
0.00208875
0.00212518
0.00205101
0.00204229
0.00198902
0.00195391
0.00192766
0.00189976
0.00165227
0.00112295
0.000148716
0.000169108
0.00153397
0.000164902
4.28311e-05
0.000248539
0.00129097
4.81099e-05
4.70074e-05
0.000256483
0.000592544
9.29272e-05
0.000666437
0.00121292
0.00128288
0.00123939
0.00126976
0.00122307
0.00122129
0.00118633
0.00116478
0.00114802
0.00112637
0.000970905
0.000558007
4.52694e-05
6.19319e-05
0.000791506
5.20875e-05
8.81931e-06
9.88337e-05
0.000628465
8.45301e-06
1.02006e-05
0.000102416
0.000273818
2.87411e-05
0.000304431
0.000627442
0.000669925
0.000651017
0.000672562
0.000646196
0.000647576
0.000626796
0.00061495
0.000605309
0.000589889
0.000501688
0.000226092
8.87018e-06
1.60478e-05
0.000337062
1.0312e-05
9.72593e-07
2.8796e-05
0.000243565
6.64148e-07
1.31804e-06
3.07826e-05
9.88898e-05
6.229e-06
0.000107742
0.000269511
0.000291714
0.000285392
0.000298769
0.000285505
0.000288059
0.000276923
0.000271512
0.000266663
0.000257161
0.000214122
6.66453e-05
1.05773e-06
2.70036e-06
0.000105921
1.08015e-06
5.96735e-08
5.47478e-06
6.61545e-05
3.45711e-08
1.14119e-07
6.07891e-06
2.46197e-05
8.59975e-07
2.60612e-05
8.70942e-05
9.60821e-05
9.50557e-05
0.000101215
9.61793e-05
9.78485e-05
9.32342e-05
9.11245e-05
8.93392e-05
8.46831e-05
6.82354e-05
1.21501e-05
8.74848e-08
3.04839e-07
2.09355e-05
5.94824e-08
1.75965e-09
6.34598e-07
1.06137e-05
4.21727e-09
6.96339e-09
7.16609e-07
3.61225e-06
7.62068e-08
3.72552e-06
1.82359e-05
2.06082e-05
2.08573e-05
2.25964e-05
2.14493e-05
2.19512e-05
2.07573e-05
2.01154e-05
1.97307e-05
1.82005e-05
1.39769e-05
1.18645e-06
4.71108e-09
2.48091e-08
2.20054e-06
2.07223e-09
2.65609e-11
4.74778e-08
8.86334e-07
4.71e-10
2.61128e-10
5.28151e-08
2.97014e-07
3.67097e-09
3.05181e-07
2.10182e-06
2.43411e-06
2.5553e-06
2.80587e-06
2.68206e-06
2.7471e-06
2.59044e-06
2.47574e-06
2.43835e-06
2.17158e-06
1.57957e-06
6.25471e-08
1.27553e-10
1.1014e-09
1.22199e-07
4.35283e-11
3.98289e-13
1.79752e-09
3.8671e-08
2.36963e-11
4.89014e-12
1.90349e-09
1.27426e-08
6.96491e-11
1.38966e-08
1.3168e-07
1.54905e-07
1.70116e-07
1.87372e-07
1.82185e-07
1.85445e-07
1.75945e-07
1.6547e-07
1.64409e-07
1.4138e-07
9.82867e-08
1.36496e-09
1.4197e-12
1.77264e-11
2.88842e-09
3.36405e-13
3.29108e-15
2.19893e-11
6.58227e-10
3.62114e-13
3.23371e-14
2.1213e-11
2.01511e-10
4.16308e-13
2.55276e-10
3.67319e-09
4.41782e-09
5.18778e-09
5.72231e-09
5.71712e-09
5.74235e-09
5.51451e-09
5.05234e-09
5.09303e-09
4.15517e-09
2.69053e-09
7.63204e-12
5.49981e-15
8.08195e-14
1.89453e-11
1.03453e-15
8.06862e-18
6.31638e-14
2.62841e-12
1.14923e-15
5.25559e-17
5.26411e-14
7.22835e-13
6.67985e-16
1.20642e-12
3.01456e-11
3.78101e-11
4.89164e-11
5.43433e-11
5.62836e-11
5.5442e-11
5.40594e-11
4.75449e-11
4.88943e-11
3.6741e-11
2.09567e-11
7.92541e-15
5.47394e-18
7.80382e-17
2.40737e-14
8.39711e-19
3.81002e-21
3.15878e-17
1.83048e-15
5.41995e-19
1.52851e-20
2.15104e-17
4.36663e-16
2.52948e-19
1.14129e-15
4.97337e-14
6.53658e-14
9.4528e-14
1.05472e-13
1.1423e-13
1.09635e-13
1.09343e-13
9.16818e-14
9.66455e-14
6.61255e-14
3.24286e-14
1.13651e-18
9.60941e-22
1.25223e-20
4.35869e-18
1.20906e-22
3.31371e-25
2.64359e-21
1.77029e-19
3.69613e-23
1.22677e-24
1.63835e-21
3.79728e-20
2.54018e-23
1.75675e-19
1.20635e-17
1.67326e-17
2.74404e-17
3.07506e-17
3.50856e-17
3.26202e-17
3.3482e-17
2.65547e-17
2.88195e-17
1.77175e-17
7.27864e-18
7.3717e-23
7.59984e-26
9.49481e-25
2.88325e-22
8.88577e-27
2.72423e-29
1.9964e-25
1.18777e-23
2.37316e-27
9.61424e-29
1.21268e-25
2.61994e-24
2.3301e-27
1.31601e-23
8.15816e-22
1.13859e-21
1.88919e-21
2.11767e-21
2.43049e-21
2.24849e-21
2.32074e-21
1.82794e-21
1.99117e-21
1.21023e-21
4.86319e-22
4.79901e-27
5.86216e-30
7.0218e-29
1.88672e-26
6.06013e-31
2.1884e-33
1.49286e-29
8.1443e-28
1.54192e-31
7.35364e-33
8.8023e-30
1.82809e-28
2.03915e-31
9.62206e-28
5.40314e-26
7.5768e-26
1.26965e-25
1.4234e-25
1.64198e-25
1.51225e-25
1.56861e-25
1.22804e-25
1.34205e-25
8.07846e-26
3.19193e-26
3.1643e-31
4.49403e-34
5.14247e-33
1.23612e-30
3.98809e-35
1.71108e-37
1.09958e-33
5.65257e-32
1.00901e-35
5.52469e-37
6.28907e-34
1.2748e-32
1.7354e-35
6.94747e-32
3.54122e-30
4.97718e-30
8.39245e-30
9.40513e-30
1.08941e-29
9.99436e-30
1.04131e-29
8.11526e-30
8.8911e-30
5.31832e-30
2.08142e-30
2.11098e-35
3.46354e-38
3.76658e-37
8.15395e-35
2.61867e-39
1.30943e-41
7.98036e-38
3.92263e-36
6.61648e-40
4.10953e-41
4.44259e-38
8.81764e-37
1.44423e-39
4.9857e-36
2.31454e-34
3.25207e-34
5.49388e-34
6.15079e-34
7.14525e-34
6.53459e-34
6.83534e-34
5.31257e-34
5.83043e-34
3.47864e-34
1.3582e-34
1.41728e-39
2.66668e-42
2.75082e-41
5.42036e-39
1.74422e-43
9.88971e-46
5.71829e-42
2.70225e-40
4.33186e-44
3.04382e-45
3.11495e-42
6.04082e-41
1.17453e-43
3.56217e-40
1.51712e-38
2.12681e-38
3.58571e-38
4.00867e-38
4.66409e-38
4.2556e-38
4.46646e-38
3.46838e-38
3.81031e-38
2.27553e-38
8.90925e-39
9.51477e-44
2.01575e-46
1.98948e-45
3.6206e-43
1.16769e-47
7.41301e-50
4.05233e-46
1.8435e-44
2.8239e-48
2.24881e-49
2.17386e-46
4.10612e-45
9.30578e-48
2.52896e-44
9.99457e-43
1.3967e-42
2.34427e-42
2.61633e-42
3.04614e-42
2.7746e-42
2.9204e-42
2.2689e-42
2.49358e-42
1.49439e-42
5.87976e-43
6.35822e-48
1.46672e-50
1.42087e-49
2.4204e-47
7.7689e-52
5.51857e-54
2.84672e-50
1.24707e-48
1.82854e-52
1.65569e-53
1.51344e-50
2.77868e-49
7.17663e-52
1.7798e-48
6.61305e-47
9.2121e-47
1.5385e-46
1.71401e-46
1.99598e-46
1.81555e-46
1.91589e-46
1.49029e-46
1.63794e-46
9.85986e-47
3.89634e-47
4.22235e-52
1.02446e-54
1.00267e-53
1.61432e-51
5.10728e-56
4.08255e-58
1.98854e-54
8.39085e-53
1.17476e-56
1.21236e-57
1.05262e-54
1.87829e-53
5.3946e-56
1.23962e-52
4.38414e-51
6.0912e-51
1.01329e-50
1.12693e-50
1.31251e-50
1.19231e-50
1.26134e-50
9.82384e-51
1.07975e-50
6.52593e-51
2.58427e-51
2.78836e-56
6.95504e-59
6.99213e-58
1.07253e-55
3.3006e-60
3.00134e-62
1.38457e-58
5.63346e-57
7.49213e-61
8.8167e-62
7.31689e-59
1.27105e-57
3.96642e-60
8.54173e-57
2.90435e-55
4.02789e-55
6.68505e-55
7.42264e-55
8.6495e-55
7.84626e-55
8.32162e-55
6.48622e-55
7.1306e-55
4.32227e-55
1.71067e-55
1.83445e-60
4.62516e-63
4.83136e-62
7.09758e-60
2.12057e-64
2.19254e-66
9.61871e-63
3.7831e-61
4.75697e-65
6.36362e-66
5.08116e-63
8.61989e-62
2.86585e-64
5.82923e-61
1.91912e-59
2.65848e-59
4.40814e-59
4.88772e-59
5.70103e-59
5.16301e-59
5.49021e-59
4.27985e-59
4.70752e-59
2.85818e-59
1.12832e-59
1.20483e-64
3.07582e-67
3.31781e-66
4.68291e-64
1.36768e-68
1.58981e-70
6.66978e-67
2.5449e-65
3.017e-69
4.55591e-70
3.52339e-67
5.85904e-66
2.04288e-68
3.9477e-65
1.26404e-63
1.74945e-63
2.90084e-63
3.21239e-63
3.75177e-63
3.39127e-63
3.61593e-63
2.81761e-63
3.10167e-63
1.88441e-63
7.41252e-64
7.91385e-69
2.0485e-71
2.26726e-70
3.08488e-68
8.81155e-73
1.14434e-74
4.61763e-71
1.71569e-69
1.91369e-73
3.2382e-74
2.4387e-71
3.98878e-70
1.44197e-72
2.65877e-69
8.30063e-68
1.14774e-67
1.90385e-67
2.10542e-67
2.46268e-67
2.22165e-67
2.37531e-67
1.84939e-67
2.03761e-67
1.2383e-67
4.85285e-68
5.20432e-73
1.36647e-75
1.54245e-74
2.03171e-72
5.68838e-77
8.17651e-79
3.19017e-75
1.15872e-73
1.21593e-77
2.28765e-78
1.68414e-75
2.71752e-74
1.00955e-76
1.78335e-73
5.43856e-72
7.51122e-72
1.24628e-71
1.3761e-71
1.61218e-71
1.45145e-71
1.55611e-71
1.21032e-71
1.33467e-71
8.11355e-72
3.16945e-72
3.42774e-77
9.1279e-80
1.04757e-78
1.33905e-76
3.69739e-81
5.80717e-83
2.19945e-79
7.8348e-78
7.74545e-82
1.60857e-82
1.16064e-79
1.85172e-78
7.01961e-81
1.19294e-77
3.5592e-76
4.90761e-76
8.14198e-76
8.9751e-76
1.0531e-75
9.46099e-76
1.01706e-75
7.9024e-76
8.72238e-76
5.30494e-76
2.0672e-76
2.26083e-81
6.10382e-84
7.09923e-83
8.83551e-81
2.41213e-85
4.1002e-87
1.5127e-83
5.30035e-82
4.94746e-86
1.1266e-86
7.98398e-84
1.26149e-82
4.8502e-85
7.96398e-82
2.3286e-80
3.20411e-80
5.31263e-80
5.84559e-80
6.86879e-80
6.15773e-80
6.63648e-80
5.15182e-80
5.69167e-80
3.46432e-80
1.34752e-80
1.49277e-85
4.08002e-88
4.80294e-87
5.83693e-85
1.57395e-89
2.86819e-91
1.03818e-87
3.58617e-86
3.16798e-90
7.86591e-91
5.48482e-88
8.59165e-87
3.27264e-89
5.30814e-86
1.52386e-84
2.0918e-84
3.46476e-84
3.80468e-84
4.47642e-84
4.00472e-84
4.32669e-84
3.35618e-84
3.71077e-84
2.26111e-84
8.7816e-85
8.87538e-90
3.26868e-91
3.52039e-91
3.41043e-89
1.30645e-93
1.20493e-93
6.35727e-92
2.35164e-90
1.97961e-94
2.03772e-94
3.3773e-92
5.15788e-91
4.84841e-91
3.1234e-90
8.82301e-89
1.20836e-88
1.99938e-88
2.31637e-88
2.65245e-88
2.90699e-88
2.52131e-88
1.97061e-88
2.14011e-88
1.77226e-88
1.66295e-88
1.37691e-43
1.0804e-43
1.20218e-43
1.20381e-43
1.19266e-43
1.21297e-43
1.20278e-43
1.19363e-43
1.19936e-43
1.21944e-43
1.22739e-43
1.23701e-43
1.26084e-43
1.2427e-43
1.27878e-43
1.26281e-43
1.27089e-43
1.30645e-43
1.28616e-43
1.29173e-43
1.30821e-43
1.29958e-43
1.31551e-43
1.19203e-43
1.51912e-43
1.4838e-31
1.30121e-31
1.36616e-31
1.36663e-31
1.36425e-31
1.37196e-31
1.37393e-31
1.37659e-31
1.37987e-31
1.3872e-31
1.38235e-31
1.39547e-31
1.40473e-31
1.40471e-31
1.40417e-31
1.41038e-31
1.41924e-31
1.4217e-31
1.42835e-31
1.43201e-31
1.42532e-31
1.43746e-31
1.43851e-31
1.35908e-31
1.56739e-31
3.5123e-20
3.55795e-20
3.5444e-20
3.54407e-20
3.54347e-20
3.5427e-20
3.54197e-20
3.54113e-20
3.54016e-20
3.53911e-20
3.53825e-20
3.5376e-20
3.53743e-20
3.53879e-20
3.5387e-20
3.53822e-20
3.53749e-20
3.53638e-20
3.535e-20
3.53377e-20
3.53296e-20
3.53253e-20
3.53244e-20
3.54669e-20
3.49868e-20
5.29358e-15
5.35603e-15
5.33739e-15
5.33728e-15
5.33693e-15
5.33643e-15
5.33582e-15
5.33508e-15
5.33407e-15
5.33285e-15
5.33143e-15
5.32981e-15
5.32804e-15
5.32649e-15
5.32487e-15
5.32333e-15
5.32202e-15
5.32077e-15
5.31957e-15
5.31867e-15
5.31812e-15
5.31792e-15
5.3179e-15
5.33826e-15
5.27242e-15
1.19908e-08
1.20147e-08
1.20014e-08
1.20014e-08
1.20012e-08
1.20011e-08
1.20012e-08
1.20016e-08
1.20022e-08
1.20036e-08
1.20059e-08
1.20098e-08
1.20158e-08
1.2021e-08
1.20267e-08
1.20303e-08
1.20324e-08
1.20337e-08
1.20343e-08
1.20347e-08
1.2035e-08
1.20352e-08
1.20355e-08
1.20507e-08
1.20231e-08
2.19214e-05
2.18372e-05
2.18744e-05
2.18758e-05
2.18772e-05
2.18789e-05
2.18811e-05
2.18837e-05
2.18867e-05
2.18901e-05
2.18939e-05
2.18976e-05
2.18994e-05
2.18872e-05
2.18888e-05
2.18924e-05
2.18964e-05
2.19003e-05
2.19039e-05
2.19073e-05
2.19103e-05
2.19128e-05
2.19144e-05
2.18803e-05
2.19626e-05
0.000534634
0.000534144
0.000534328
0.000534376
0.000534426
0.000534483
0.000534549
0.00053462
0.000534695
0.000534767
0.000534824
0.000534838
0.000534743
0.000534196
0.000534097
0.000534111
0.000534171
0.000534251
0.000534339
0.000534426
0.000534508
0.000534577
0.000534622
0.000534498
0.000535006
)
;

boundaryField
{
    inlet
    {
        type            calculated;
        value           uniform 0.1;
    }
    outlet
    {
        type            calculated;
        value           nonuniform List<scalar> 
25
(
0.00250856
0.00250809
0.00250827
0.00250831
0.00250836
0.00250841
0.00250847
0.00250854
0.00250861
0.00250868
0.00250873
0.00250875
0.00250866
0.00250815
0.00250806
0.00250807
0.00250813
0.0025082
0.00250829
0.00250837
0.00250845
0.00250851
0.00250855
0.00250843
0.00250892
)
;
    }
    walls
    {
        type            calculated;
        value           nonuniform List<scalar> 
150
(
0.237906
0.322
0.325475
0.316527
0.304854
0.293034
0.280949
0.269262
0.257482
0.246008
0.23417
0.222685
0.211441
0.200723
0.18982
0.178999
0.167793
0.156905
0.145759
0.134735
0.123566
0.11236
0.100888
0.0891747
0.0771268
0.0646835
0.0521255
0.041268
0.0335576
0.0282893
0.0241611
0.0205318
0.0172114
0.0141606
0.0113655
0.00883527
0.00660101
0.00470269
0.00316248
0.00197709
0.00112295
0.000558007
0.000226092
6.66453e-05
1.21501e-05
1.18645e-06
6.25471e-08
1.36496e-09
7.63204e-12
7.92541e-15
1.13651e-18
7.3717e-23
4.79901e-27
3.1643e-31
2.11098e-35
1.41728e-39
9.51477e-44
6.35822e-48
4.22235e-52
2.78836e-56
1.83445e-60
1.20483e-64
7.91385e-69
5.20432e-73
3.42774e-77
2.26083e-81
1.49277e-85
8.87538e-90
1.37691e-43
1.4838e-31
3.5123e-20
5.29358e-15
1.19908e-08
2.19214e-05
0.000534634
0.243222
0.322311
0.323846
0.314116
0.301607
0.289621
0.277324
0.265154
0.252921
0.240624
0.227749
0.214117
0.199535
0.184383
0.168227
0.150433
0.12804
0.107315
0.0959977
0.0882537
0.0804681
0.0723187
0.0638656
0.0558738
0.0487953
0.0426467
0.0372078
0.0323157
0.0278718
0.0238333
0.0201699
0.0168628
0.0138946
0.0112527
0.00892602
0.00690533
0.0051804
0.0037396
0.00256892
0.00165227
0.000970905
0.000501688
0.000214122
6.82354e-05
1.39769e-05
1.57957e-06
9.82867e-08
2.69053e-09
2.09567e-11
3.24286e-14
7.27864e-18
4.86319e-22
3.19193e-26
2.08142e-30
1.3582e-34
8.90925e-39
5.87976e-43
3.89634e-47
2.58427e-51
1.71067e-55
1.12832e-59
7.41252e-64
4.85285e-68
3.16945e-72
2.0672e-76
1.34752e-80
8.7816e-85
1.66295e-88
1.51912e-43
1.56739e-31
3.49868e-20
5.27242e-15
1.20231e-08
2.19626e-05
0.000535006
)
;
    }
    frontAndBack
    {
        type            empty;
    }
}


// ************************************************************************* //
