/*--------------------------------*- C++ -*----------------------------------*\
  =========                 |
  \\      /  F ield         | OpenFOAM: The Open Source CFD Toolbox
   \\    /   O peration     | Website:  https://openfoam.org
    \\  /    A nd           | Version:  dev
     \\/     M anipulation  |
\*---------------------------------------------------------------------------*/
FoamFile
{
    version     2.0;
    format      ascii;
    class       volScalarField;
    location    "1";
    object      alpha.water;
}
// * * * * * * * * * * * * * * * * * * * * * * * * * * * * * * * * * * * * * //

dimensions      [0 0 0 0 0 0 0];

internalField   nonuniform List<scalar> 
1875
(
0.815984
0.806848
0.808762
0.813713
0.807916
0.804575
0.808294
0.808354
0.809457
0.80029
0.795803
0.80487
0.805465
0.808634
0.81255
0.823282
0.821006
0.820631
0.820919
0.821106
0.821614
0.822142
0.822135
0.822241
0.822691
0.679938
0.675894
0.657768
0.672795
0.658767
0.649949
0.651944
0.672028
0.668804
0.643651
0.643005
0.650126
0.653874
0.656061
0.662285
0.666111
0.680979
0.672981
0.664337
0.663712
0.666311
0.671698
0.674867
0.676689
0.67619
0.644084
0.663138
0.638261
0.63877
0.63791
0.637893
0.637891
0.641777
0.646547
0.643528
0.643503
0.643942
0.643127
0.639129
0.636493
0.60903
0.641003
0.64132
0.641328
0.641313
0.641328
0.641313
0.642992
0.644421
0.644426
0.641062
0.650113
0.638826
0.639822
0.628578
0.640157
0.640819
0.641964
0.646733
0.643401
0.64547
0.650175
0.647898
0.643915
0.639584
0.606886
0.625978
0.641667
0.642412
0.642038
0.6422
0.642329
0.643556
0.644388
0.644695
0.641075
0.628608
0.64414
0.646575
0.616228
0.635397
0.647686
0.646127
0.648801
0.643255
0.650198
0.653151
0.651908
0.650516
0.648039
0.609011
0.625511
0.645611
0.648347
0.647519
0.647819
0.647989
0.648505
0.648561
0.64896
0.6408
0.61647
0.64801
0.647353
0.615558
0.615705
0.647776
0.649778
0.649357
0.629723
0.64208
0.653198
0.651573
0.649081
0.644673
0.605642
0.613076
0.642923
0.653294
0.652103
0.651651
0.650952
0.650855
0.650518
0.651154
0.644165
0.616204
0.650331
0.649452
0.616228
0.614472
0.64657
0.659324
0.652193
0.630122
0.633284
0.653263
0.649426
0.646043
0.617942
0.609011
0.608014
0.637537
0.658471
0.658526
0.657491
0.655291
0.654534
0.653928
0.654551
0.646627
0.615807
0.650361
0.651045
0.615382
0.615705
0.636697
0.66119
0.648504
0.629715
0.630645
0.653406
0.644619
0.635028
0.609011
0.605026
0.609011
0.631409
0.657905
0.661146
0.66075
0.658515
0.657496
0.656611
0.656963
0.648771
0.616204
0.650332
0.651408
0.616752
0.615703
0.647205
0.670101
0.644186
0.630645
0.657039
0.66681
0.656197
0.626371
0.607381
0.609011
0.607969
0.626318
0.65768
0.661212
0.661158
0.661039
0.660486
0.659994
0.660187
0.648783
0.616422
0.641861
0.651381
0.616757
0.625909
0.669722
0.671835
0.646857
0.648887
0.694549
0.685691
0.691462
0.654629
0.609011
0.604985
0.609011
0.622811
0.656548
0.661158
0.661249
0.661158
0.661159
0.661158
0.660531
0.648827
0.616204
0.616125
0.651408
0.624136
0.688667
0.687872
0.672052
0.646966
0.693649
0.721287
0.680246
0.720878
0.691644
0.605898
0.609011
0.608252
0.619622
0.655476
0.661448
0.661158
0.661192
0.661158
0.661188
0.650848
0.648909
0.619314
0.615689
0.640797
0.667508
0.74256
0.687916
0.642805
0.681454
0.744027
0.721862
0.65087
0.72477
0.673708
0.609011
0.60526
0.609011
0.620245
0.656075
0.661158
0.661392
0.661158
0.661282
0.655368
0.628596
0.648827
0.622701
0.63484
0.636964
0.756297
0.771478
0.666891
0.642687
0.768735
0.768363
0.709297
0.647791
0.73296
0.66119
0.606226
0.609011
0.608826
0.623237
0.657913
0.661561
0.661158
0.661442
0.656375
0.639005
0.616581
0.647258
0.626312
0.70758
0.64859
0.790151
0.77102
0.659301
0.655218
0.794675
0.763185
0.690886
0.647947
0.734403
0.658818
0.60903
0.607403
0.60986
0.632893
0.657296
0.661158
0.661515
0.647335
0.639348
0.628091
0.616343
0.638018
0.661976
0.773001
0.672289
0.790626
0.776779
0.644839
0.664437
0.798971
0.73684
0.668895
0.648448
0.734371
0.656413
0.608308
0.60903
0.614384
0.639721
0.650715
0.657603
0.642129
0.629014
0.628509
0.627942
0.616543
0.625733
0.725613
0.803883
0.676293
0.790155
0.787271
0.645347
0.668559
0.798952
0.722656
0.658371
0.656939
0.732912
0.647266
0.60903
0.6077
0.621875
0.638877
0.636299
0.633127
0.62264
0.618394
0.614883
0.626965
0.616421
0.624256
0.74408
0.811205
0.665838
0.783141
0.803731
0.648383
0.671173
0.804849
0.720087
0.658972
0.677972
0.728808
0.638725
0.608341
0.60903
0.61644
0.634137
0.622743
0.617826
0.616295
0.613574
0.608732
0.62349
0.641506
0.623488
0.725845
0.81167
0.665502
0.771355
0.821803
0.674137
0.677499
0.81225
0.730154
0.658478
0.699374
0.72279
0.632108
0.60903
0.607586
0.60903
0.627072
0.617788
0.61655
0.616546
0.611682
0.609071
0.621411
0.707741
0.624256
0.699895
0.803177
0.665638
0.765271
0.835523
0.716244
0.695857
0.814732
0.741553
0.664348
0.714788
0.718515
0.624992
0.608458
0.60903
0.608038
0.613155
0.618802
0.618591
0.618586
0.610707
0.608932
0.614118
0.738026
0.623828
0.692226
0.790479
0.669893
0.760868
0.842481
0.736868
0.717325
0.81974
0.756858
0.690403
0.72525
0.711877
0.607952
0.60903
0.607574
0.60903
0.60837
0.618971
0.618993
0.616109
0.60931
0.609071
0.608819
0.738028
0.624256
0.691889
0.788437
0.674833
0.757223
0.850969
0.744528
0.732771
0.828125
0.778692
0.724246
0.736375
0.704192
0.609034
0.608465
0.60903
0.608008
0.60903
0.610582
0.618971
0.609562
0.609036
0.609005
0.609071
0.738142
0.624082
0.693578
0.791494
0.679089
0.753437
0.864432
0.751324
0.735388
0.83741
0.802951
0.751493
0.749248
0.699112
0.608173
0.609035
0.60751
0.60903
0.608204
0.60903
0.610631
0.609036
0.60889
0.609036
0.608863
0.738589
0.624256
0.701746
0.797449
0.683491
0.751814
0.879766
0.760405
0.732847
0.847112
0.829002
0.774501
0.76401
0.699029
0.609034
0.608469
0.60903
0.607958
0.60903
0.608829
0.609036
0.608911
0.609036
0.608919
0.609036
0.750199
0.624164
0.717174
0.803892
0.689221
0.755354
0.891772
0.770159
0.726532
0.855855
0.853911
0.798138
0.781196
0.702015
0.608369
0.609042
0.607499
0.60903
0.608657
0.612662
0.617349
0.610236
0.612024
0.60951
0.636269
0.772779
0.624256
0.738487
0.809534
0.692752
0.768174
0.898777
0.778765
0.714935
0.864011
0.874665
0.822196
0.800338
0.710012
0.609036
0.608541
0.60903
0.608449
0.629681
0.662221
0.675119
0.653963
0.660079
0.65478
0.707708
0.797705
0.62427
0.768305
0.813265
0.690919
0.784302
0.904569
0.783336
0.69731
0.86768
0.891593
0.84459
0.821139
0.725256
0.608881
0.609036
0.607911
0.609036
0.698343
0.740602
0.75628
0.73739
0.74523
0.743349
0.780887
0.817774
0.654926
0.812331
0.817842
0.681958
0.795495
0.909828
0.785461
0.67017
0.865792
0.90528
0.863611
0.843016
0.753717
0.612122
0.608631
0.609036
0.612507
0.756874
0.792707
0.807029
0.801472
0.808049
0.810697
0.823562
0.833076
0.736526
0.860064
0.822296
0.658118
0.799643
0.914847
0.790405
0.638455
0.859012
0.91627
0.878896
0.863706
0.795229
0.631992
0.609036
0.608761
0.644762
0.783634
0.814986
0.827334
0.83023
0.83572
0.839912
0.841422
0.845526
0.816769
0.894256
0.811374
0.622852
0.799163
0.920456
0.803859
0.625761
0.852695
0.925704
0.89116
0.880908
0.84149
0.676786
0.611252
0.61588
0.704676
0.806019
0.826971
0.836941
0.842204
0.847377
0.851106
0.850372
0.856742
0.856844
0.910648
0.790963
0.615228
0.79763
0.927151
0.825851
0.625707
0.851942
0.934496
0.901336
0.89426
0.880688
0.74485
0.656995
0.672278
0.768782
0.827343
0.837412
0.845042
0.850263
0.855151
0.858041
0.857597
0.86736
0.871684
0.918855
0.786145
0.615273
0.801216
0.934377
0.856283
0.635217
0.862361
0.943078
0.910522
0.905029
0.907756
0.81672
0.753488
0.770083
0.822526
0.844497
0.848494
0.854327
0.858619
0.863034
0.865126
0.865444
0.877704
0.87916
0.927439
0.799251
0.615935
0.815688
0.942319
0.892134
0.687604
0.886684
0.951344
0.919378
0.913392
0.925531
0.866536
0.835631
0.844787
0.856293
0.85875
0.86051
0.865129
0.868342
0.872132
0.873635
0.874542
0.887928
0.885976
0.93721
0.837474
0.642198
0.844925
0.950931
0.923109
0.77335
0.915265
0.958896
0.928285
0.920536
0.938251
0.890761
0.873202
0.877386
0.873965
0.871808
0.873201
0.876991
0.879361
0.882521
0.883686
0.88484
0.898158
0.892936
0.947362
0.887095
0.72053
0.885035
0.95981
0.943014
0.845006
0.938285
0.965656
0.937258
0.927766
0.948523
0.903194
0.887484
0.890244
0.885748
0.884641
0.886255
0.889352
0.89122
0.893833
0.894849
0.895967
0.908432
0.900341
0.95634
0.92808
0.8167
0.92159
0.968463
0.954872
0.88493
0.954294
0.971883
0.946156
0.935646
0.957589
0.913183
0.896808
0.899107
0.896944
0.897605
0.899437
0.901875
0.903499
0.905648
0.906606
0.907542
0.918747
0.909179
0.963932
0.953115
0.882821
0.945882
0.976175
0.962964
0.904181
0.965929
0.977718
0.954881
0.944145
0.96588
0.923793
0.906951
0.908774
0.909138
0.910615
0.912534
0.914367
0.915867
0.917612
0.918528
0.919248
0.929048
0.92023
0.97073
0.967445
0.913493
0.960959
0.982738
0.969576
0.915908
0.975418
0.983136
0.963499
0.952976
0.97358
0.93551
0.919185
0.920204
0.922183
0.923494
0.92539
0.92671
0.928107
0.929491
0.930348
0.930878
0.939265
0.933168
0.977259
0.977011
0.927691
0.971783
0.988145
0.975766
0.926806
0.983059
0.987971
0.971717
0.961834
0.980629
0.947769
0.932841
0.932819
0.935373
0.936069
0.937877
0.938768
0.940049
0.941117
0.941889
0.94228
0.949308
0.946815
0.983667
0.984359
0.938361
0.98031
0.992411
0.981452
0.939188
0.989269
0.991943
0.979289
0.970406
0.986835
0.959751
0.946604
0.94575
0.948135
0.948216
0.949872
0.950413
0.951558
0.952365
0.953026
0.953334
0.959074
0.960133
0.98948
0.98974
0.949863
0.987848
0.995593
0.98693
0.952959
0.994219
0.995068
0.986233
0.97839
0.991954
0.970886
0.959478
0.95824
0.960136
0.959793
0.961231
0.961487
0.962484
0.963071
0.963618
0.963883
0.968418
0.972318
0.9941
0.993893
0.963223
0.993418
0.997892
0.991809
0.967305
0.997398
0.997655
0.991762
0.985273
0.995838
0.980607
0.971061
0.969785
0.971144
0.970629
0.971761
0.971831
0.972643
0.973059
0.973485
0.973738
0.977154
0.982582
0.997513
0.997013
0.97614
0.997114
0.999368
0.995706
0.979636
0.999307
0.99929
0.995756
0.991066
0.998333
0.98852
0.981122
0.980105
0.980884
0.980423
0.981179
0.981193
0.981756
0.982052
0.982343
0.982595
0.984986
0.990641
0.999341
0.99897
0.98655
0.999199
0.999907
0.998326
0.98939
0.999926
0.999882
0.998296
0.995607
0.99953
0.994536
0.989362
0.988658
0.989012
0.98863
0.989104
0.98906
0.989434
0.989604
0.989794
0.990018
0.991527
0.9962
0.999903
0.99978
0.994175
0.999888
0.999993
0.999579
0.995996
0.999997
0.999988
0.999547
0.998477
0.999919
0.998194
0.995315
0.994902
0.995026
0.994749
0.995013
0.994936
0.995162
0.99524
0.995343
0.995511
0.996299
0.999036
0.999991
0.999971
0.998391
0.999993
1
0.99994
0.999107
1
0.999999
0.999933
0.999695
0.999991
0.999656
0.998636
0.998476
0.998484
0.998365
0.998455
0.998416
0.998503
0.998537
0.99857
0.998657
0.998945
0.999877
0.999999
0.999997
0.999775
1
1
0.999995
0.999904
1
1
0.999994
0.999969
0.999999
0.999966
0.999791
0.999758
0.999751
0.999726
0.99974
0.999732
0.999749
0.999758
0.999763
0.999786
0.999842
0.999992
1
1
0.999984
1
1
1
0.999995
1
1
1
0.999998
1
0.999998
0.999984
0.999981
0.999979
0.999977
0.999978
0.999978
0.999979
0.99998
0.99998
0.999983
0.999988
1
1
1
1
1
1
1
1
1
1
1
1
1
1
0.999999
0.999999
0.999999
0.999999
0.999999
0.999999
0.999999
0.999999
0.999999
0.999999
1
1
1
1
1
1
1
1
1
1
1
1
1
1
1
1
1
1
1
1
1
1
1
1
1
1
1
1
1
1
1
1
1
1
1
1
1
1
1
1
1
1
1
1
1
1
1
1
1
1
1
1
1
1
1
1
1
1
1
1
1
1
1
1
1
1
1
1
1
1
1
1
1
1
1
1
1
1
1
1
1
1
1
1
1
1
1
1
1
1
1
1
1
1
1
1
1
1
1
1
1
1
1
1
1
1
1
1
1
1
1
1
1
1
1
1
1
1
1
1
1
1
1
1
1
1
1
1
1
1
1
1
1
1
1
1
1
1
1
1
1
1
1
1
1
1
1
1
1
1
1
1
1
1
1
1
1
1
1
1
1
1
1
1
1
1
1
1
1
1
1
1
1
1
1
1
1
1
1
1
1
1
1
1
1
1
1
1
1
1
1
1
1
1
1
1
1
1
1
1
1
1
1
1
1
1
1
1
1
1
1
1
1
1
1
1
1
1
1
1
1
1
1
1
1
1
1
1
1
1
1
1
1
1
1
1
1
1
1
1
1
1
1
1
1
1
1
1
1
1
1
1
1
1
1
1
1
1
1
1
1
1
1
1
1
1
1
1
1
1
1
1
1
1
1
1
1
1
1
1
1
1
1
1
1
1
1
1
1
1
1
1
1
1
1
1
1
1
1
1
1
1
1
1
1
1
1
1
1
1
1
1
1
1
1
1
1
1
1
1
1
1
1
1
1
1
1
1
1
1
1
1
1
1
1
1
1
1
1
1
1
1
1
1
1
1
1
1
1
1
1
1
1
1
1
1
1
1
1
1
1
1
1
1
1
1
1
1
1
1
1
1
1
1
1
1
1
1
1
1
1
1
1
1
1
1
1
1
1
1
1
1
1
1
1
1
1
1
1
1
1
1
1
1
1
1
1
1
1
1
1
1
1
1
1
1
1
1
1
1
1
1
1
1
1
1
1
1
1
1
1
1
1
1
1
1
1
1
1
1
1
1
1
1
1
1
1
1
1
1
1
1
1
1
1
1
1
1
1
1
1
1
1
1
1
1
1
1
1
1
1
1
1
1
1
1
1
1
1
1
1
1
1
1
1
1
1
1
1
1
1
1
1
1
1
1
1
1
1
1
1
1
1
1
1
1
1
1
1
1
1
1
1
1
1
1
1
1
1
1
1
1
1
1
1
1
1
1
1
1
1
1
1
1
1
1
1
1
1
1
1
1
1
1
1
1
1
1
1
1
1
1
1
1
1
1
1
1
1
1
1
1
1
1
1
1
1
1
1
1
1
1
1
1
1
1
1
1
1
1
1
1
1
1
1
1
1
1
1
1
1
1
1
1
1
1
1
1
1
1
1
1
1
1
1
1
1
1
1
1
1
1
1
1
1
1
1
1
1
1
1
1
1
1
1
1
1
1
1
1
1
1
1
1
1
1
1
1
1
1
1
1
1
1
1
1
1
1
1
1
1
1
1
1
1
1
1
1
1
1
1
1
1
1
1
1
1
1
1
1
1
1
1
1
1
1
)
;

boundaryField
{
    inlet
    {
        type            fixedValue;
        value           uniform 0;
    }
    outlet
    {
        type            inletOutlet;
        phi             phi.water;
        inletValue      uniform 0;
        value           uniform 1;
    }
    walls
    {
        type            zeroGradient;
    }
    frontAndBack
    {
        type            empty;
    }
}


// ************************************************************************* //
