/*--------------------------------*- C++ -*----------------------------------*\
  =========                 |
  \\      /  F ield         | OpenFOAM: The Open Source CFD Toolbox
   \\    /   O peration     | Website:  https://openfoam.org
    \\  /    A nd           | Version:  dev
     \\/     M anipulation  |
\*---------------------------------------------------------------------------*/
FoamFile
{
    version     2.0;
    format      ascii;
    class       volScalarField;
    location    "1";
    object      alpha.air;
}
// * * * * * * * * * * * * * * * * * * * * * * * * * * * * * * * * * * * * * //

dimensions      [0 0 0 0 0 0 0];

internalField   nonuniform List<scalar> 
1875
(
0.179828
0.186345
0.183907
0.180004
0.183706
0.187047
0.184899
0.182745
0.18426
0.191333
0.196867
0.187276
0.187205
0.185607
0.182737
0.176718
0.178994
0.179369
0.179081
0.178894
0.178386
0.177858
0.177865
0.177759
0.177309
0.320062
0.323058
0.341185
0.327205
0.340186
0.349003
0.347009
0.327972
0.330149
0.355302
0.355948
0.349874
0.345079
0.342892
0.337715
0.333889
0.319021
0.327019
0.335663
0.336288
0.333689
0.328302
0.325133
0.323311
0.32381
0.355916
0.336338
0.361215
0.36123
0.361567
0.361583
0.361586
0.358223
0.352929
0.355948
0.355974
0.356058
0.356349
0.359824
0.363507
0.39097
0.358997
0.35868
0.358672
0.358687
0.358672
0.358687
0.357008
0.355579
0.355574
0.358938
0.34884
0.360127
0.360178
0.370374
0.358272
0.358134
0.358036
0.352219
0.355028
0.353482
0.349825
0.351055
0.355038
0.360416
0.393114
0.374022
0.358333
0.357588
0.357962
0.3578
0.357671
0.356444
0.355612
0.355305
0.358925
0.370345
0.354812
0.353425
0.382724
0.36408
0.351267
0.353873
0.350152
0.356222
0.348755
0.346849
0.347044
0.34896
0.351961
0.390989
0.374489
0.354389
0.351653
0.352481
0.352181
0.352011
0.351495
0.351439
0.35104
0.3592
0.383006
0.350943
0.352647
0.383918
0.382724
0.351177
0.350222
0.350119
0.368706
0.356873
0.346802
0.347379
0.349872
0.355327
0.394358
0.386924
0.357077
0.346706
0.347897
0.348349
0.349048
0.349145
0.349482
0.348846
0.355835
0.382749
0.348621
0.350548
0.382724
0.383957
0.352907
0.340676
0.34676
0.368308
0.365669
0.346737
0.349527
0.35291
0.382058
0.390989
0.391986
0.362463
0.341529
0.341474
0.342509
0.344709
0.345466
0.346072
0.345449
0.353373
0.383146
0.348592
0.348955
0.383571
0.382724
0.362256
0.33881
0.350449
0.368714
0.368308
0.346594
0.354334
0.363925
0.390989
0.394974
0.390989
0.368591
0.342095
0.338854
0.33925
0.341485
0.342504
0.343389
0.343037
0.351229
0.382749
0.348621
0.348592
0.382724
0.38325
0.351748
0.329899
0.354767
0.368308
0.342437
0.33319
0.341709
0.373105
0.392619
0.390989
0.392031
0.373682
0.34232
0.338788
0.338842
0.338961
0.339514
0.340006
0.339813
0.351217
0.383055
0.357092
0.348619
0.382195
0.373044
0.329231
0.328165
0.352619
0.350066
0.304404
0.314309
0.307491
0.344323
0.390989
0.395015
0.390989
0.377189
0.343452
0.338842
0.338751
0.338842
0.338841
0.338842
0.339469
0.351173
0.382749
0.382827
0.348592
0.374817
0.310809
0.311604
0.327948
0.351987
0.305828
0.278189
0.319754
0.278598
0.307832
0.394102
0.390989
0.391748
0.380378
0.344524
0.338552
0.338842
0.338808
0.338842
0.338812
0.349152
0.351091
0.379639
0.382741
0.359203
0.331969
0.256393
0.311037
0.357195
0.317499
0.255449
0.27709
0.34913
0.274707
0.325245
0.390989
0.39474
0.390989
0.379755
0.343925
0.338842
0.338608
0.338842
0.338718
0.344632
0.371404
0.351173
0.376775
0.364637
0.363036
0.242656
0.227998
0.332585
0.357313
0.230218
0.23059
0.29018
0.352209
0.265993
0.338286
0.393774
0.390989
0.391174
0.376763
0.342087
0.338439
0.338842
0.338558
0.343625
0.360995
0.383419
0.352742
0.37264
0.291373
0.35141
0.208802
0.227933
0.339652
0.344782
0.20323
0.236292
0.308067
0.352053
0.265074
0.340659
0.39097
0.392597
0.39014
0.367107
0.342704
0.338842
0.338485
0.352665
0.360652
0.371909
0.383657
0.361982
0.336977
0.225428
0.327711
0.208851
0.222697
0.354114
0.335563
0.199981
0.262637
0.330581
0.351552
0.265105
0.34254
0.391692
0.39097
0.385616
0.360279
0.349285
0.342397
0.357871
0.370986
0.371491
0.372058
0.383457
0.374267
0.273863
0.195593
0.323707
0.208797
0.211682
0.35413
0.331441
0.200001
0.276821
0.340582
0.343061
0.266041
0.351687
0.39097
0.3923
0.378125
0.361123
0.363701
0.366873
0.37736
0.381606
0.385117
0.373035
0.383579
0.375744
0.254873
0.188272
0.334162
0.216336
0.195745
0.350569
0.328827
0.194628
0.278866
0.340504
0.322028
0.270668
0.360752
0.391659
0.39097
0.38356
0.365863
0.377257
0.382174
0.383705
0.386426
0.391268
0.37651
0.358494
0.376512
0.273632
0.18833
0.334498
0.227598
0.178197
0.325339
0.322501
0.18775
0.269322
0.340475
0.300626
0.276163
0.367368
0.39097
0.392414
0.39097
0.372928
0.382212
0.38345
0.383454
0.388318
0.390929
0.378589
0.292259
0.375744
0.299058
0.196823
0.334362
0.234206
0.164477
0.282709
0.304143
0.185268
0.258447
0.334605
0.285212
0.281485
0.373961
0.391542
0.39097
0.391962
0.386845
0.381198
0.381409
0.381414
0.389293
0.391068
0.385882
0.261974
0.376172
0.307774
0.209521
0.330107
0.238608
0.157519
0.263132
0.282675
0.18026
0.243142
0.309597
0.27475
0.288123
0.391525
0.39097
0.392426
0.39097
0.39163
0.381029
0.381007
0.383891
0.39069
0.390929
0.391181
0.261972
0.375744
0.308111
0.211563
0.325167
0.242777
0.149031
0.255472
0.267229
0.171875
0.221308
0.275754
0.263625
0.295808
0.390966
0.391535
0.39097
0.391992
0.39097
0.389418
0.381029
0.390438
0.390964
0.390995
0.390929
0.261858
0.375918
0.306422
0.208506
0.320911
0.246563
0.135568
0.248676
0.264612
0.16259
0.197049
0.248507
0.250752
0.300888
0.391827
0.390965
0.39249
0.39097
0.391796
0.39097
0.389369
0.390964
0.39111
0.390964
0.391137
0.261411
0.375744
0.298254
0.202551
0.316509
0.248186
0.120234
0.239595
0.267153
0.152888
0.170998
0.225499
0.23599
0.300971
0.390966
0.391531
0.39097
0.392042
0.39097
0.391171
0.390964
0.391089
0.390964
0.391081
0.390964
0.249801
0.375836
0.282826
0.196108
0.310779
0.244646
0.108228
0.229841
0.273468
0.144145
0.146089
0.201862
0.218804
0.297985
0.391631
0.390958
0.392501
0.39097
0.391343
0.387338
0.382651
0.389764
0.387976
0.39049
0.363731
0.227221
0.375744
0.261513
0.190466
0.307248
0.231826
0.101223
0.221235
0.285065
0.135989
0.125335
0.177804
0.199662
0.289988
0.390964
0.391459
0.39097
0.391551
0.370319
0.337779
0.324881
0.346037
0.339921
0.34522
0.292292
0.202295
0.37573
0.231695
0.186735
0.309081
0.215698
0.0954308
0.216664
0.30269
0.13232
0.108407
0.15541
0.178861
0.274744
0.391119
0.390964
0.392089
0.390964
0.301657
0.259398
0.24372
0.26261
0.25477
0.256651
0.219113
0.182226
0.345074
0.187669
0.182158
0.318042
0.204505
0.0901725
0.214539
0.32983
0.134208
0.0947198
0.136389
0.156984
0.246283
0.387878
0.391369
0.390964
0.387493
0.243126
0.207293
0.192971
0.198528
0.191951
0.189303
0.176438
0.166924
0.263474
0.139936
0.177704
0.341882
0.200357
0.0851531
0.209595
0.361545
0.140988
0.0837304
0.121104
0.136294
0.204771
0.368008
0.390964
0.391239
0.355238
0.216366
0.185014
0.172666
0.16977
0.16428
0.160088
0.158578
0.154474
0.183231
0.105744
0.188626
0.377148
0.200837
0.0795436
0.196141
0.374239
0.147305
0.0742964
0.10884
0.119092
0.15851
0.323214
0.388748
0.38412
0.295324
0.193981
0.173029
0.163059
0.157796
0.152623
0.148894
0.149628
0.143258
0.143156
0.089352
0.209037
0.384772
0.20237
0.0728493
0.174149
0.374293
0.148058
0.0655044
0.0986639
0.10574
0.119312
0.25515
0.343005
0.327722
0.231218
0.172657
0.162588
0.154958
0.149737
0.144849
0.141959
0.142403
0.13264
0.128316
0.0811455
0.213855
0.384727
0.198784
0.0656229
0.143717
0.364783
0.137639
0.0569218
0.0894783
0.0949709
0.092244
0.18328
0.246512
0.229917
0.177474
0.155503
0.151506
0.145673
0.141381
0.136966
0.134874
0.134556
0.122296
0.12084
0.072561
0.200749
0.384065
0.184312
0.0576805
0.107866
0.312396
0.113316
0.048656
0.0806221
0.0866081
0.0744687
0.133464
0.164369
0.155213
0.143707
0.14125
0.13949
0.134871
0.131658
0.127868
0.126365
0.125458
0.112072
0.114024
0.0627899
0.162526
0.357802
0.155075
0.0490693
0.0768906
0.22665
0.0847348
0.0411039
0.0717151
0.0794636
0.0617487
0.109239
0.126798
0.122614
0.126035
0.128192
0.126799
0.123009
0.120639
0.117479
0.116314
0.11516
0.101842
0.107064
0.0526383
0.112905
0.27947
0.114965
0.0401902
0.0569862
0.154994
0.0617154
0.0343443
0.0627424
0.072234
0.0514768
0.0968062
0.112516
0.109756
0.114252
0.115359
0.113745
0.110648
0.10878
0.106167
0.105151
0.104033
0.0915682
0.0996587
0.0436605
0.0719202
0.1833
0.0784104
0.0315368
0.0451276
0.11507
0.0457056
0.0281166
0.0538435
0.064354
0.0424107
0.0868175
0.103192
0.100893
0.103056
0.102395
0.100563
0.0981253
0.0965012
0.0943516
0.0933941
0.092458
0.0812531
0.0908212
0.0360681
0.0468848
0.117179
0.0541181
0.0238248
0.0370363
0.0958186
0.0340713
0.0222821
0.0451194
0.0558552
0.0341196
0.0762067
0.093049
0.0912256
0.0908616
0.0893853
0.0874661
0.0856333
0.0841325
0.0823882
0.0814717
0.0807525
0.070952
0.0797697
0.0292696
0.0325547
0.0865074
0.0390412
0.0172617
0.0304241
0.0840918
0.0245823
0.0168641
0.0365011
0.0470237
0.0264203
0.0644899
0.0808148
0.0797963
0.0778174
0.0765063
0.07461
0.0732899
0.0718932
0.0705092
0.0696519
0.0691222
0.0607345
0.0668324
0.0227409
0.0229888
0.0723095
0.0282174
0.0118547
0.0242341
0.0731943
0.0169409
0.0120291
0.0282832
0.0381656
0.0193708
0.0522307
0.067159
0.0671813
0.0646268
0.0639307
0.0621233
0.0612324
0.0599506
0.0588831
0.058111
0.0577198
0.0506922
0.0531847
0.0163326
0.0156408
0.0616392
0.0196898
0.00758937
0.0185479
0.0608123
0.0107312
0.00805691
0.0207112
0.0295939
0.0131649
0.0402488
0.0533958
0.0542503
0.0518654
0.0517843
0.0501282
0.049587
0.048442
0.0476354
0.046974
0.0466664
0.0409265
0.0398667
0.0105202
0.0102604
0.0501367
0.0121517
0.00440662
0.0130702
0.0470412
0.00578074
0.00493211
0.0137675
0.0216099
0.00804598
0.0291142
0.0405221
0.04176
0.0398642
0.0402068
0.0387693
0.0385133
0.0375158
0.0369287
0.0363816
0.036117
0.031582
0.0276823
0.00589985
0.00610738
0.0367775
0.00658174
0.00210849
0.00819148
0.0326951
0.00260247
0.00234512
0.00823843
0.0147269
0.00416244
0.0193926
0.0289386
0.030215
0.028856
0.0293713
0.0282386
0.0281688
0.0273567
0.0269411
0.026515
0.0262619
0.0228457
0.017418
0.00248719
0.00298661
0.0238605
0.00288603
0.000632334
0.00429385
0.0203642
0.000692699
0.000710403
0.00424354
0.0089343
0.00166659
0.0114804
0.0188782
0.0198952
0.0191164
0.0195773
0.018821
0.0188071
0.0182435
0.0179483
0.0176567
0.0174052
0.0150139
0.00935948
0.000658647
0.00102987
0.0134495
0.000800673
9.26401e-05
0.0016742
0.0106103
7.4464e-05
0.000118281
0.00170388
0.00439318
0.000469565
0.00546436
0.0106376
0.0113421
0.0109875
0.0113698
0.0108958
0.0109404
0.0105658
0.0103963
0.0102059
0.00998245
0.00847261
0.00380004
9.71849e-05
0.00022046
0.00582503
0.000111824
7.10159e-06
0.000421008
0.00400383
3.42895e-06
1.17735e-05
0.000452549
0.00152331
8.09156e-05
0.00180587
0.00468468
0.00509806
0.00497435
0.00525143
0.00498686
0.00506399
0.00483817
0.00476016
0.00465702
0.00448907
0.00370054
0.000964111
9.10107e-06
2.85417e-05
0.00160938
7.4069e-06
2.57725e-07
5.98354e-05
0.000893155
2.77824e-07
8.35444e-07
6.68e-05
0.000304956
8.56823e-06
0.000343564
0.00136374
0.00152427
0.00151608
0.00163505
0.00154524
0.00158397
0.00149746
0.00146345
0.00143047
0.00134276
0.00105465
0.000122603
5.84527e-07
2.73278e-06
0.000225331
2.66652e-07
4.28879e-09
5.36328e-06
9.55514e-05
3.8803e-08
3.75661e-08
5.97027e-06
3.10782e-05
5.12851e-07
3.39757e-05
0.00020948
0.000241526
0.00024939
0.000274041
0.000260057
0.000267571
0.000251322
0.000242067
0.000237318
0.00021416
0.000157558
8.10409e-06
1.97205e-08
1.53719e-07
1.55411e-05
6.31172e-09
6.70817e-11
2.57529e-07
5.28397e-06
2.8657e-09
8.39332e-10
2.74565e-07
1.73057e-06
1.25267e-08
1.94566e-06
1.62549e-05
1.90513e-05
2.05472e-05
2.2691e-05
2.18704e-05
2.24026e-05
2.11347e-05
2.00451e-05
1.98113e-05
1.72735e-05
1.219e-05
2.263e-07
2.65281e-10
3.18385e-09
4.66922e-07
5.56212e-11
6.5533e-13
4.16144e-09
1.16007e-07
6.43871e-11
6.80979e-12
4.06501e-09
3.68123e-08
9.26703e-11
4.66474e-08
5.79551e-07
6.96234e-07
8.05422e-07
8.92595e-07
8.83939e-07
8.94147e-07
8.52703e-07
7.86774e-07
7.89078e-07
6.50574e-07
4.26764e-07
1.66598e-09
1.24912e-12
1.83226e-11
4.05401e-09
2.05621e-13
1.98519e-15
1.53318e-11
6.01292e-10
2.87493e-13
1.36257e-14
1.29783e-11
1.69468e-10
1.77458e-13
2.78009e-10
6.33918e-09
7.95506e-09
1.01691e-08
1.13542e-08
1.16647e-08
1.15707e-08
1.12014e-08
9.9115e-09
1.01464e-08
7.68442e-09
4.423e-09
2.21137e-12
1.51796e-15
2.17955e-14
6.55219e-12
2.08981e-16
1.14486e-18
9.46302e-15
5.30008e-13
1.75392e-16
4.79811e-18
6.5514e-15
1.2719e-13
7.80848e-17
3.23807e-13
1.33238e-11
1.74758e-11
2.49752e-11
2.79501e-11
3.00678e-11
2.90391e-11
2.87879e-11
2.42972e-11
2.55122e-11
1.76171e-11
8.75822e-12
3.86352e-16
3.18725e-19
4.17899e-18
1.45151e-15
3.67946e-20
1.04098e-22
8.51153e-19
5.98789e-17
1.26483e-20
3.89619e-22
5.09906e-19
1.24826e-17
8.17429e-21
5.9079e-17
3.97027e-15
5.48509e-15
8.89688e-15
9.98163e-15
1.13302e-14
1.05898e-14
1.08187e-14
8.63763e-15
9.34435e-15
5.80149e-15
2.4207e-15
2.51364e-20
2.53752e-23
3.1939e-22
9.7385e-20
2.85329e-24
8.55722e-27
6.34359e-23
3.92561e-21
7.95059e-25
3.09864e-26
3.83339e-23
8.4306e-22
7.60203e-25
4.45519e-21
2.7372e-19
3.80651e-19
6.25221e-19
7.01349e-19
8.01268e-19
7.44902e-19
7.65636e-19
6.06932e-19
6.59211e-19
4.04437e-19
1.64622e-19
1.62472e-24
1.9487e-27
2.35871e-26
6.40781e-24
2.021e-28
6.97892e-31
4.7492e-27
2.63941e-25
5.11672e-29
2.39725e-30
2.81816e-27
5.83043e-26
6.65694e-29
3.25841e-25
1.83782e-23
2.57164e-23
4.27516e-23
4.79675e-23
5.51189e-23
5.09907e-23
5.26927e-23
4.14821e-23
4.52215e-23
2.74269e-23
1.09222e-23
1.05834e-28
1.48078e-31
1.71558e-30
4.18703e-28
1.35034e-32
5.54111e-35
3.52498e-31
1.81573e-29
3.33555e-33
1.81178e-34
2.03456e-31
4.07534e-30
5.65026e-33
2.34289e-29
1.21247e-27
1.70388e-27
2.85928e-27
3.20802e-27
3.70488e-27
3.41221e-27
3.54335e-27
2.77321e-27
3.03264e-27
1.82267e-27
7.14559e-28
6.9824e-33
1.13324e-35
1.2471e-34
2.74115e-32
8.92586e-37
4.28407e-39
2.58108e-35
1.2611e-33
2.18622e-37
1.34894e-38
1.44822e-35
2.84103e-34
4.70097e-37
1.67184e-33
7.92499e-32
1.11568e-31
1.88241e-31
2.11096e-31
2.44762e-31
2.24579e-31
2.34243e-31
1.82548e-31
2.00104e-31
1.19575e-31
4.64932e-32
4.6585e-37
8.70397e-40
9.06387e-39
1.80721e-36
5.9981e-41
3.25078e-43
1.86358e-39
8.74026e-38
1.43625e-41
9.96751e-43
1.02003e-39
1.96264e-38
3.83669e-41
1.18907e-37
5.17133e-36
7.27534e-36
1.22888e-35
1.37672e-35
1.60048e-35
1.46417e-35
1.53306e-35
1.19187e-35
1.30868e-35
7.80494e-36
3.03067e-36
3.12449e-41
6.59158e-44
6.54791e-43
1.20025e-40
4.03757e-45
2.43774e-47
1.32759e-43
6.00581e-42
9.43904e-46
7.33711e-47
7.13014e-44
1.34234e-42
3.05826e-45
8.42388e-42
3.38603e-40
4.7522e-40
8.00644e-40
8.9572e-40
1.04285e-39
9.51916e-40
9.9996e-40
7.76911e-40
8.53817e-40
5.10026e-40
1.98716e-40
2.09371e-45
4.81639e-48
4.68493e-47
8.00722e-45
2.69225e-49
1.81105e-51
9.35109e-48
4.08671e-46
6.17564e-50
5.38426e-51
4.96133e-48
9.11337e-47
2.37379e-49
5.93056e-46
2.22889e-44
3.11798e-44
5.22937e-44
5.84066e-44
6.80414e-44
6.2005e-44
6.53193e-44
5.0784e-44
5.58262e-44
3.3476e-44
1.31101e-44
1.39634e-49
3.37876e-52
3.31709e-51
5.34613e-49
1.77247e-53
1.33608e-55
6.53567e-52
2.75957e-50
4.00461e-54
3.93506e-55
3.44501e-52
6.1644e-51
1.79366e-53
4.13916e-50
1.47357e-48
2.05469e-48
3.43017e-48
3.82423e-48
4.45569e-48
4.05491e-48
4.28269e-48
3.33403e-48
3.6651e-48
2.20765e-48
8.68179e-49
9.25845e-54
2.30088e-56
2.32132e-55
3.56178e-53
1.1412e-57
9.80073e-60
4.54706e-56
1.85512e-54
2.56898e-58
2.86082e-59
2.39042e-56
4.16735e-55
1.32306e-57
2.86006e-54
9.75933e-53
1.35732e-52
2.25796e-52
2.51284e-52
2.92845e-52
2.66158e-52
2.8181e-52
2.19648e-52
2.41466e-52
1.4602e-52
5.75199e-53
6.10835e-58
1.53254e-60
1.60846e-59
2.36449e-57
7.31337e-62
7.1521e-64
3.15487e-60
1.24534e-58
1.6366e-62
2.06677e-63
1.65796e-60
2.8216e-59
9.57204e-62
1.95694e-58
6.45835e-57
8.9667e-57
1.48852e-56
1.65397e-56
1.92863e-56
1.75026e-56
1.85788e-56
1.44902e-56
1.59342e-56
9.66178e-57
3.80242e-57
4.01735e-62
1.01945e-64
1.10651e-63
1.5641e-61
4.73676e-66
5.1864e-68
2.18527e-64
8.36757e-63
1.04076e-66
1.48195e-67
1.14915e-64
1.91511e-63
6.82309e-66
1.32786e-62
4.26339e-61
5.91216e-61
9.80694e-61
1.08819e-60
1.27013e-60
1.15064e-60
1.22458e-60
9.55112e-61
1.05094e-60
6.38137e-61
2.50435e-61
2.63919e-66
6.78701e-69
7.56737e-68
1.032e-65
3.03199e-70
3.73648e-72
1.51208e-68
5.63408e-67
6.60638e-71
1.05498e-71
7.9557e-69
1.30271e-67
4.81295e-70
8.95291e-67
2.80566e-65
3.8869e-65
6.44811e-65
7.14468e-65
8.35022e-65
7.55041e-65
8.05714e-65
6.28068e-65
6.91608e-65
4.20207e-65
1.64296e-65
1.73461e-70
4.52455e-73
5.14854e-72
6.80105e-70
1.93303e-74
2.67302e-76
1.04468e-72
3.80187e-71
4.19466e-75
7.46191e-76
5.49765e-73
8.8739e-72
3.3674e-74
6.00726e-71
1.84107e-69
2.54799e-69
4.2285e-69
4.67812e-69
5.47583e-69
4.94135e-69
5.28749e-69
4.11776e-69
4.53812e-69
2.75806e-69
1.0744e-69
1.14158e-74
3.02086e-77
3.49579e-76
4.48209e-74
1.24922e-78
1.90059e-80
7.20583e-77
2.56992e-75
2.66806e-79
5.25039e-80
3.79157e-77
6.04878e-76
2.34062e-78
4.01799e-75
1.20578e-73
1.66642e-73
2.76608e-73
3.0553e-73
3.58188e-73
3.22526e-73
3.46061e-73
2.6921e-73
2.96974e-73
1.80531e-73
7.01081e-74
7.52469e-79
2.0196e-81
2.36837e-80
2.95621e-78
8.14403e-83
1.34299e-84
4.9591e-81
1.73892e-79
1.70141e-83
3.67792e-84
2.60978e-81
4.12313e-80
1.61739e-82
2.68158e-79
7.88966e-78
1.08833e-77
1.8061e-77
1.9915e-77
2.33822e-77
2.10079e-77
2.25997e-77
1.7563e-77
1.93931e-77
1.17946e-77
4.56955e-78
4.96673e-83
1.3502e-85
1.60207e-84
1.95206e-82
5.31717e-87
9.39834e-89
3.40579e-85
1.17708e-83
1.0879e-87
2.56751e-88
1.7935e-85
2.80969e-84
1.09217e-86
1.78683e-83
5.16159e-82
7.10408e-82
1.17806e-81
1.29651e-81
1.52429e-81
1.36657e-81
1.47382e-81
1.14434e-81
1.26462e-81
7.69774e-82
2.97674e-82
2.95289e-87
1.08453e-88
1.1676e-88
1.13992e-86
4.34627e-91
3.94093e-91
2.06696e-89
7.72227e-88
6.78287e-92
6.96882e-92
1.08864e-89
1.68563e-88
1.61863e-88
1.04991e-87
2.98726e-86
4.1025e-86
6.79674e-86
7.87823e-86
9.02772e-86
9.88247e-86
8.5489e-86
6.71817e-86
7.29213e-86
6.02657e-86
5.65452e-86
2.46133e-87
5.14017e-75
1.10713e-74
1.0949e-74
4.14599e-75
1.36028e-74
5.28932e-75
2.71972e-94
4.50729e-94
5.38214e-75
5.85089e-75
5.66687e-75
1.29717e-74
5.41166e-75
1.88171e-74
5.30267e-75
5.20789e-75
1.89649e-74
5.01237e-75
5.16164e-75
4.49969e-74
5.57204e-86
1.20228e-74
9.88151e-75
7.4376e-75
1.24698e-62
1.06595e-62
9.51654e-63
9.19127e-63
7.4118e-63
1.05787e-62
1.04832e-62
1.06642e-62
1.04065e-62
1.17817e-62
6.82704e-63
1.00819e-62
1.17065e-62
1.28915e-62
9.77401e-63
9.65996e-63
1.1004e-62
9.93575e-63
1.08894e-62
1.06685e-62
4.5926e-74
6.56375e-60
1.05942e-62
7.48735e-63
1.40138e-62
2.75104e-51
2.24824e-51
2.22621e-51
3.97556e-51
2.20206e-51
2.18625e-51
2.18666e-51
6.22603e-51
2.12746e-51
2.10509e-51
2.08131e-51
2.05613e-51
2.03044e-51
2.00768e-51
2.84449e-51
1.95892e-51
1.94255e-51
3.25067e-51
1.89619e-51
1.88376e-51
7.73662e-48
1.1762e-44
1.87727e-51
1.85773e-51
2.27356e-51
2.16585e-46
1.76716e-46
2.3175e-46
8.42292e-44
1.73233e-46
1.72112e-46
5.34794e-46
2.46212e-43
1.67824e-46
1.66224e-46
1.64601e-46
1.62704e-46
1.60787e-46
2.10087e-45
9.42172e-43
1.55535e-46
6.58036e-46
2.80385e-43
1.51077e-46
8.4179e-46
9.31489e-43
1.57542e-42
1.47478e-46
1.48464e-46
1.82018e-46
2.89911e-37
1.5959e-41
2.06712e-37
8.59581e-44
2.09255e-37
6.95331e-40
6.5252e-37
2.51274e-43
2.54921e-37
3.92981e-37
2.34049e-37
2.33902e-37
3.89587e-37
3.9506e-37
9.61591e-43
1.33173e-37
3.87552e-37
2.86167e-43
3.74626e-37
1.39418e-37
9.49107e-43
9.29914e-43
3.67942e-37
7.35374e-41
4.272e-37
1.15317e-23
3.80604e-27
9.65047e-24
9.62857e-24
9.59611e-24
9.55655e-24
9.51446e-24
9.46175e-24
9.40695e-24
9.34763e-24
9.29015e-24
9.22323e-24
9.16025e-24
9.09553e-24
9.02965e-24
8.96971e-24
8.9097e-24
8.85721e-24
8.80928e-24
8.76436e-24
8.72774e-24
8.69667e-24
8.63085e-24
2.75077e-27
1.03515e-23
5.0137e-20
4.3668e-20
4.45297e-20
4.44666e-20
4.43734e-20
4.42565e-20
4.41285e-20
4.39758e-20
4.38188e-20
4.36429e-20
4.34651e-20
4.32692e-20
4.30757e-20
4.28571e-20
4.26575e-20
4.2474e-20
4.22939e-20
4.21362e-20
4.19927e-20
4.18602e-20
4.1752e-20
4.16647e-20
4.15854e-20
4.07342e-20
4.67597e-20
)
;

boundaryField
{
    inlet
    {
        type            fixedValue;
        value           uniform 0.1;
    }
    outlet
    {
        type            inletOutlet;
        phi             phi.air;
        inletValue      uniform 1;
        value           nonuniform List<scalar> 
25
(
5.0137e-20
4.3668e-20
4.45297e-20
4.44666e-20
4.43734e-20
4.42565e-20
4.41285e-20
4.39758e-20
4.38188e-20
4.36429e-20
4.34651e-20
4.32692e-20
4.30757e-20
4.28571e-20
4.26575e-20
4.2474e-20
4.22939e-20
4.21362e-20
4.19927e-20
4.18602e-20
4.1752e-20
4.16647e-20
4.15854e-20
4.07342e-20
4.67597e-20
)
;
    }
    walls
    {
        type            zeroGradient;
    }
    frontAndBack
    {
        type            empty;
    }
}


// ************************************************************************* //
