/*--------------------------------*- C++ -*----------------------------------*\
  =========                 |
  \\      /  F ield         | OpenFOAM: The Open Source CFD Toolbox
   \\    /   O peration     | Website:  https://openfoam.org
    \\  /    A nd           | Version:  dev
     \\/     M anipulation  |
\*---------------------------------------------------------------------------*/
FoamFile
{
    version     2.0;
    format      ascii;
    class       volScalarField;
    location    "1";
    object      Ct2;
}
// * * * * * * * * * * * * * * * * * * * * * * * * * * * * * * * * * * * * * //

dimensions      [0 0 0 0 0 0 0];

internalField   nonuniform List<scalar> 
1875
(
1
1
1
1
1
1
1
1
1
1
1
1
1
1
1
1
1
1
1
1
1
1
1
1
1
1
1
1
1
1
1
1
1
1
1
1
1
1
1
1
1
1
1
1
1
1
1
1
1
1
1
1
1
1
1
1
1
1
1
1
1
1
1
1
1
1
1
1
1
1
1
1
1
1
1
1
1
1
1
1
1
1
1
1
1
1
1
1
1
1
1
1
1
1
1
1
1
1
1
1
1
1
1
1
1
1
1
1
1
1
1
1
1
1
1
1
1
1
1
1
1
1
1
1
1
1
1
1
1
1
1
1
1
1
1
1
1
1
1
1
1
1
1
1
1
1
1
1
1
1
1
1
1
1
1
1
1
1
1
1
1
1
1
1
1
1
1
1
1
1
1
1
1
1
1
1
1
1
1
1
1
1
1
1
1
1
1
1
1
1
1
1
1
1
1
1
1
1
1
1
1
1
1
1
1
1
1
1
1
1
1
1
1
1
1
1
1
1
1
1
1
1
1
1
1
1
1
1
1
1
1
1
1
1
1
1
1
1
1
1
1
1
1
1
1
1
1
1
1
1
1
1
1
1
1
1
1
1
1
1
1
1
1
1
1
1
1
1
1
1
1
1
1
1
1
1
1
1
1
1
1
1
1
1
1
1
1
1
1
1
1
1
1
1
1
1
1
1
1
1
1
1
1
1
1
1
1
1
1
1
1
1
1
1
1
1
1
1
1
1
1
1
1
1
1
1
1
1
1
1
1
1
1
1
1
1
1
1
1
1
1
1
1
1
1
1
1
1
1
1
1
1
1
1
1
1
1
1
1
1
1
1
1
1
1
1
1
1
1
1
1
1
1
1
1
1
1
1
1
1
1
1
1
1
1
1
1
1
1
1
1
1
1
1
1
1
1
1
1
1
1
1
1
1
1
1
1
1
1
1
1
1
1
1
1
1
1
1
1
1
1
1
1
1
1
1
1
1
1
1
1
1
1
1
1
1
1
1
1
1
1
1
1
1
1
1
1
1
1
1
1
1
1
1
1
1
1
1
1
1
1
1
1
1
1
1
1
1
1
1
1
1
1
1
1
1
1
1
1
1
1
1
1
1
1
1
1
1
1
1
1
1
1
1
1
1
1
1
1
1
1
1
1
1
1
1
1
1
1
1
1
1
1
1
1
1
1
1
1
1
1
1
1
1
1
1
1
1
1
1
1
1
1
1
1
1
1
1
1
1
1
1
1
1
1
1
1
1
1
1
1
1
1
1
1
1
1
1
1
1
1
1
1
1
1
1
1
1
1
1
1
1
1
1
1
1
1
1
1
1
1
1
1
1
1
1
1
1
1
1
1
1
1
1
1
1
1
1
1
1
1
1
1
1
1
1
1
1
1
1
1
1
1
1
1
1
1
1
1
1
1
1
1
1
1
1
1
1
1
1
1.00005
1
1
1
1
1
1
1
1
1
1
1
1
1
1
1
1
1
1
1
1
1
1
1
1
1.00042
1
1
1
1.00007
1
1
1
1
1
1
1
1
1
1
1
1
1
1
1
1
1
1
1
1
1.00225
1
1
1
1.00343
1
1
1
1
1
1
1
1
1
1
1
1
1
1
1
1
1
1
1
1
1.01034
1
1
1
1.0316
1
1
1
1
1
1
1
1
1
1
1
1
1
1
1
1
1.00056
1
1
1
1.04102
1
1
1
1.11722
1.00001
1
1
1
1
1
1
1
1
1
1
1
1
1
1
1
1.00692
1
1
1
1.11563
1
1
1
1.24594
1.00054
1.00006
1.00019
1
1
1
1
1
1
1
1
1
1
1
1
1
1.04297
1
1
1
1.23444
1
1
1
1.34842
1.00794
1.00143
1.0306
1
1
1
1
1
1
1
1
1
1
1
1
1
1.15534
1
1
1
1.34459
1.01884
1
1.00256
1.39455
1.04968
1.01054
1.17161
1
1
1
1
1
1
1
1
1
1
1
1
1
1.30444
1
1
1
1.39778
1.24504
1
1.17209
1.41535
1.1566
1.04558
1.31943
1.00003
1
1
1
1
1
1
1
1
1
1
1.00024
1.00001
1.38219
1.04803
1
1.01348
1.4262
1.37523
1
1.37147
1.44716
1.28992
1.13312
1.38935
1.00133
1
1
1
1
1
1.00001
1.00003
1.00008
1.00012
1.00017
1.00661
1.00032
1.40896
1.36323
1
1.28625
1.49533
1.40742
1.00004
1.41626
1.52199
1.37525
1.26179
1.41616
1.02173
1.00014
1.00028
1.00032
1.00055
1.00108
1.00194
1.00306
1.005
1.00638
1.00767
1.05503
1.00957
1.43778
1.4219
1.00148
1.40158
1.66776
1.43194
1.00309
1.4844
1.68494
1.40891
1.36216
1.46257
1.1312
1.00756
1.00973
1.01541
1.02042
1.02979
1.03798
1.04825
1.06015
1.06839
1.07378
1.18363
1.0979
1.51242
1.5091
1.04501
1.44646
2.0338
1.48935
1.03863
1.68156
2.01586
1.44591
1.40418
1.59284
1.31051
1.09607
1.0958
1.12929
1.13917
1.16593
1.17955
1.19941
1.216
1.22792
1.23385
1.3222
1.29242
1.70858
1.7452
1.17331
1.58349
2.73818
1.61924
1.18604
2.16517
2.62682
1.55633
1.43681
1.91175
1.39767
1.29585
1.28446
1.31491
1.31587
1.33422
1.3397
1.35045
1.35733
1.36255
1.36477
1.38851
1.39145
2.19185
2.22936
1.33414
2.00367
3.93904
1.91966
1.36205
3.30364
3.66898
1.86444
1.53574
2.6294
1.43993
1.39675
1.39211
1.39898
1.39784
1.40241
1.40317
1.40606
1.40773
1.40928
1.40998
1.41936
1.44333
3.25647
3.18273
1.40817
3.02326
5.7235
2.59694
1.42135
5.23277
5.47929
2.5866
1.79868
4.07846
1.59218
1.44115
1.43312
1.44173
1.43825
1.44629
1.44684
1.45362
1.45744
1.46162
1.46419
1.50425
1.65195
5.33798
4.89871
1.49491
4.98262
7.74306
4.00243
1.56513
7.63999
7.6102
4.03107
2.44626
6.23134
2.07461
1.60825
1.5777
1.60067
1.58675
1.61012
1.61058
1.6299
1.64072
1.6519
1.66191
1.77095
2.35366
7.69491
7.10074
1.88885
7.46089
8.76741
6.22192
2.18119
8.80532
8.71446
6.18548
3.94671
8.03272
3.4308
2.17756
2.09042
2.1328
2.08723
2.14424
2.13866
2.18713
2.21025
2.23717
2.27002
2.51997
4.27376
8.75636
8.50764
3.28686
8.72796
8.94861
8.122
4.17401
8.95664
8.93858
8.0635
6.41157
8.79227
6.06363
3.79172
3.59136
3.64906
3.52234
3.64314
3.60706
3.71477
3.75349
3.80592
3.89429
4.34016
7.17332
8.94416
8.90275
6.30246
8.94799
8.96359
8.83634
7.31232
8.96356
8.96234
8.82147
8.3418
8.94555
8.26772
6.62258
6.41054
6.42107
6.27042
6.38361
6.3344
6.44517
6.48957
6.53308
6.65085
7.03525
8.69822
8.96291
8.95821
8.4981
8.96361
8.9642
8.95246
8.76184
8.96412
8.96412
8.95111
8.89728
8.96307
8.89114
8.52962
8.46599
8.45047
8.40212
8.42949
8.41476
8.44665
8.4649
8.47428
8.51997
8.62497
8.94598
8.96419
8.9639
8.93065
8.96423
8.96423
8.96367
8.95269
8.96423
8.96424
8.96363
8.96043
8.96421
8.95996
8.9291
8.92313
8.91993
8.91535
8.9171
8.91597
8.91867
8.921
8.92149
8.92674
8.93694
8.96372
8.96426
8.96427
8.96325
8.96427
8.96427
8.96427
8.96401
8.96427
8.96427
8.96427
8.96419
8.96427
8.96417
8.963
8.96275
8.96251
8.96232
8.96234
8.96232
8.96241
8.96255
8.96255
8.96283
8.96328
8.96428
8.9643
8.9643
8.9643
8.96431
8.9643
8.9643
8.96431
8.96431
8.9643
8.9643
8.96431
8.9643
8.96431
8.9643
8.96429
8.96429
8.96429
8.96429
8.96429
8.96429
8.96429
8.96429
8.96429
8.96427
8.96431
8.96433
8.96434
8.96434
8.96434
8.96434
8.96434
8.96434
8.96434
8.96434
8.96434
8.96434
8.96434
8.96434
8.96434
8.96434
8.96434
8.96434
8.96434
8.96434
8.96434
8.96434
8.96434
8.96433
8.96431
8.96434
8.96437
8.96438
8.96438
8.96438
8.96438
8.96438
8.96438
8.96438
8.96438
8.96438
8.96438
8.96438
8.96438
8.96438
8.96438
8.96438
8.96438
8.96438
8.96438
8.96438
8.96438
8.96437
8.96437
8.96434
8.96438
8.9644
8.96441
8.96441
8.96441
8.96441
8.96441
8.96441
8.96441
8.96441
8.96441
8.96441
8.96441
8.96441
8.96441
8.96441
8.96441
8.96441
8.96441
8.96441
8.96441
8.96441
8.96441
8.9644
8.96438
8.96441
8.96444
8.96445
8.96445
8.96445
8.96445
8.96445
8.96445
8.96445
8.96445
8.96445
8.96445
8.96445
8.96445
8.96445
8.96445
8.96445
8.96445
8.96445
8.96445
8.96445
8.96445
8.96445
8.96444
8.96441
8.96445
8.96447
8.96448
8.96448
8.96448
8.96448
8.96448
8.96448
8.96448
8.96448
8.96448
8.96448
8.96448
8.96448
8.96448
8.96448
8.96448
8.96448
8.96448
8.96448
8.96448
8.96448
8.96448
8.96447
8.96445
8.96448
8.96451
8.96452
8.96452
8.96452
8.96452
8.96452
8.96452
8.96452
8.96452
8.96452
8.96452
8.96452
8.96452
8.96452
8.96452
8.96452
8.96452
8.96452
8.96452
8.96452
8.96452
8.96452
8.96451
8.96448
8.96452
8.96454
8.96455
8.96455
8.96455
8.96455
8.96455
8.96455
8.96455
8.96455
8.96455
8.96455
8.96455
8.96455
8.96455
8.96455
8.96455
8.96455
8.96455
8.96455
8.96455
8.96455
8.96455
8.96454
8.96452
8.96455
8.96458
8.96459
8.96459
8.96459
8.96459
8.96459
8.96459
8.96459
8.96459
8.96459
8.96459
8.96459
8.96459
8.96459
8.96459
8.96459
8.96459
8.96459
8.96459
8.96459
8.96459
8.96459
8.96458
8.96455
8.96459
8.96461
8.96462
8.96462
8.96462
8.96462
8.96462
8.96462
8.96462
8.96462
8.96462
8.96462
8.96462
8.96462
8.96462
8.96462
8.96462
8.96462
8.96462
8.96462
8.96462
8.96462
8.96462
8.96462
8.96459
8.96462
8.96465
8.96466
8.96466
8.96466
8.96466
8.96466
8.96466
8.96466
8.96466
8.96466
8.96466
8.96466
8.96466
8.96466
8.96466
8.96466
8.96466
8.96466
8.96466
8.96466
8.96466
8.96466
8.96465
8.96462
8.96466
8.96469
8.96469
8.96469
8.96469
8.96469
8.96469
8.96469
8.96469
8.96469
8.96469
8.96469
8.96469
8.96469
8.96469
8.96469
8.96469
8.96469
8.96469
8.96469
8.96469
8.96469
8.96469
8.96469
8.96466
8.96469
8.96472
8.96473
8.96473
8.96473
8.96473
8.96473
8.96473
8.96473
8.96473
8.96473
8.96473
8.96473
8.96473
8.96473
8.96473
8.96473
8.96473
8.96473
8.96473
8.96473
8.96473
8.96473
8.96472
8.9647
8.96473
8.96476
8.96476
8.96476
8.96476
8.96476
8.96476
8.96476
8.96476
8.96476
8.96476
8.96476
8.96476
8.96476
8.96476
8.96476
8.96476
8.96476
8.96476
8.96476
8.96476
8.96476
8.96476
8.96476
8.96473
8.96476
8.9648
8.9648
8.9648
8.9648
8.9648
8.9648
8.9648
8.9648
8.9648
8.9648
8.9648
8.9648
8.9648
8.9648
8.9648
8.9648
8.9648
8.9648
8.9648
8.9648
8.9648
8.9648
8.96479
8.96477
8.9648
8.96483
8.96483
8.96483
8.96483
8.96483
8.96483
8.96483
8.96483
8.96483
8.96483
8.96483
8.96483
8.96483
8.96483
8.96483
8.96483
8.96483
8.96483
8.96483
8.96483
8.96483
8.96483
8.96483
8.9648
8.96484
8.96487
8.96487
8.96487
8.96487
8.96487
8.96487
8.96487
8.96487
8.96487
8.96487
8.96487
8.96487
8.96487
8.96487
8.96487
8.96487
8.96487
8.96487
8.96487
8.96487
8.96487
8.96487
8.96486
8.96484
8.96487
8.9649
8.96491
8.96491
8.96491
8.96491
8.96491
8.96491
8.96491
8.96491
8.96491
8.96491
8.96491
8.96491
8.96491
8.96491
8.96491
8.96491
8.96491
8.96491
8.96491
8.96491
8.96491
8.9649
8.96487
8.96491
8.96494
8.96494
8.96494
8.96494
8.96494
8.96494
8.96494
8.96494
8.96494
8.96494
8.96494
8.96494
8.96494
8.96494
8.96494
8.96494
8.96494
8.96494
8.96494
8.96494
8.96494
8.96494
8.96494
8.96491
8.96494
8.96497
8.96498
8.96498
8.96498
8.96498
8.96498
8.96498
8.96498
8.96498
8.96498
8.96498
8.96498
8.96498
8.96498
8.96498
8.96498
8.96498
8.96498
8.96498
8.96498
8.96498
8.96498
8.96497
8.96494
8.96498
8.96501
8.96501
8.96501
8.96501
8.96501
8.96501
8.96501
8.96501
8.96501
8.96501
8.96501
8.96501
8.96501
8.96501
8.96501
8.96501
8.96501
8.96501
8.96501
8.96501
8.96501
8.96501
8.96501
8.96498
8.96501
8.96504
8.96505
8.96505
8.96505
8.96505
8.96505
8.96505
8.96505
8.96505
8.96505
8.96505
8.96505
8.96505
8.96505
8.96505
8.96505
8.96505
8.96505
8.96505
8.96505
8.96505
8.96505
8.96504
8.96501
8.96505
8.96508
8.96508
8.96508
8.96508
8.96508
8.96508
8.96508
8.96508
8.96508
8.96508
8.96508
8.96508
8.96508
8.96508
8.96508
8.96508
8.96508
8.96508
8.96508
8.96508
8.96508
8.96508
8.96508
8.96505
8.96508
8.96511
8.96512
8.96512
8.96512
8.96512
8.96512
8.96512
8.96512
8.96512
8.96512
8.96512
8.96512
8.96512
8.96512
8.96512
8.96512
8.96512
8.96512
8.96512
8.96512
8.96512
8.96512
8.96511
8.96508
8.96512
8.96515
8.96515
8.96515
8.96515
8.96515
8.96515
8.96515
8.96515
8.96515
8.96515
8.96515
8.96515
8.96515
8.96515
8.96515
8.96515
8.96515
8.96515
8.96515
8.96515
8.96515
8.96515
8.96515
8.96512
8.96515
8.96518
8.96519
8.96519
8.96519
8.96519
8.96519
8.96519
8.96519
8.96519
8.96519
8.96519
8.96519
8.96519
8.96519
8.96519
8.96519
8.96519
8.96519
8.96519
8.96519
8.96519
8.96519
8.96518
8.96515
8.96519
8.96522
8.96522
8.96522
8.96522
8.96522
8.96522
8.96522
8.96522
8.96522
8.96522
8.96522
8.96522
8.96522
8.96522
8.96522
8.96522
8.96522
8.96522
8.96522
8.96522
8.96522
8.96522
8.96522
8.96519
)
;

boundaryField
{
    inlet
    {
        type            calculated;
        value           nonuniform List<scalar> 
25
(
1.00001
1.00001
1.00001
1.00001
1.00001
1.00001
1.00001
1.00001
1.00001
1.00001
1.00001
1.00001
1.00001
1.00001
1.00001
1.00001
1.00001
1.00001
1.00001
1.00001
1.00001
1.00001
1.00001
1.00001
1.00001
)
;
    }
    outlet
    {
        type            calculated;
        value           nonuniform List<scalar> 
25
(
8.96521
8.96524
8.96524
8.96524
8.96524
8.96524
8.96524
8.96524
8.96524
8.96524
8.96524
8.96524
8.96524
8.96524
8.96524
8.96524
8.96524
8.96524
8.96524
8.96524
8.96524
8.96524
8.96524
8.96524
8.96521
)
;
    }
    walls
    {
        type            calculated;
        value           nonuniform List<scalar> 
150
(
1
1
1
1
1
1
1
1
1
1
1
1
1
1
1
1
1
1
1
1
1
1
1
1
1
1
1
1
1
1
1
1
1
1
1.00001
1.00033
1.0098
1.10011
1.29867
1.39907
1.4509
1.66157
2.37044
4.30341
7.20192
8.70634
8.94689
8.96383
8.96435
8.96439
8.96443
8.96446
8.9645
8.96453
8.96457
8.9646
8.96464
8.96467
8.96471
8.96474
8.96478
8.96481
8.96485
8.96489
8.96492
8.96496
8.96499
8.96503
8.96506
8.9651
8.96513
8.96517
8.9652
8.96524
8.96527
1
1
1
1
1
1
1
1
1
1
1
1
1
1
1
1
1
1
1
1
1
1
1
1
1
1
1
1
1
1
1
1
1
1.00025
1.00676
1.05617
1.18729
1.32832
1.3954
1.4262
1.51172
1.78116
2.53735
4.3691
7.06406
8.63481
8.93814
8.9634
8.96435
8.96439
8.96443
8.96446
8.9645
8.96453
8.96457
8.9646
8.96464
8.96467
8.96471
8.96474
8.96478
8.96481
8.96485
8.96489
8.96492
8.96496
8.96499
8.96503
8.96506
8.9651
8.96513
8.96517
8.9652
8.96524
8.96527
)
;
    }
    frontAndBack
    {
        type            empty;
    }
}


// ************************************************************************* //
