/*--------------------------------*- C++ -*----------------------------------*\
  =========                 |
  \\      /  F ield         | OpenFOAM: The Open Source CFD Toolbox
   \\    /   O peration     | Website:  https://openfoam.org
    \\  /    A nd           | Version:  dev
     \\/     M anipulation  |
\*---------------------------------------------------------------------------*/
FoamFile
{
    version     2.0;
    format      ascii;
    class       volScalarField;
    location    "1";
    object      d.air;
}
// * * * * * * * * * * * * * * * * * * * * * * * * * * * * * * * * * * * * * //

dimensions      [0 1 0 0 0 0 0];

internalField   nonuniform List<scalar> 
1875
(
0.00293721
0.00293721
0.0029372
0.00293722
0.0029372
0.00293722
0.0029372
0.00293724
0.00293722
0.00293727
0.00293725
0.0029373
0.00293731
0.00293735
0.00293738
0.00293741
0.00293739
0.00293741
0.0029374
0.00293741
0.0029374
0.0029374
0.0029374
0.0029374
0.0029374
0.00293797
0.00293796
0.00293797
0.00293798
0.00293797
0.00293798
0.00293796
0.002938
0.00293797
0.00293802
0.00293801
0.00293805
0.00293805
0.00293811
0.00293812
0.00293816
0.00293814
0.00293816
0.00293815
0.00293815
0.00293815
0.00293815
0.00293815
0.00293815
0.00293815
0.0029385
0.00293849
0.00293849
0.0029385
0.00293849
0.0029385
0.00293848
0.00293851
0.00293849
0.00293853
0.00293852
0.00293855
0.00293857
0.00293862
0.00293864
0.00293868
0.00293867
0.00293868
0.00293868
0.00293869
0.00293868
0.00293869
0.00293868
0.00293869
0.00293869
0.00293918
0.00293919
0.00293917
0.00293918
0.00293917
0.00293918
0.00293916
0.00293919
0.00293917
0.00293923
0.00293921
0.00293923
0.00293924
0.0029393
0.00293932
0.00293935
0.00293936
0.00293936
0.00293935
0.00293936
0.00293935
0.00293935
0.00293935
0.00293935
0.00293935
0.00293971
0.00293973
0.0029397
0.00293971
0.0029397
0.00293972
0.00293969
0.00293971
0.00293972
0.00293978
0.00293976
0.00293977
0.0029398
0.00293986
0.00293986
0.00293989
0.0029399
0.0029399
0.00293989
0.0029399
0.00293989
0.00293989
0.00293989
0.0029399
0.0029399
0.00294037
0.00294039
0.00294036
0.00294038
0.00294037
0.00294039
0.00294036
0.00294036
0.00294039
0.00294046
0.00294046
0.00294046
0.00294049
0.00294054
0.00294056
0.00294057
0.00294058
0.00294058
0.00294056
0.00294056
0.00294056
0.00294056
0.00294055
0.00294056
0.00294055
0.00294092
0.00294093
0.00294091
0.00294093
0.00294095
0.00294096
0.00294093
0.00294091
0.00294096
0.00294104
0.00294106
0.00294105
0.00294108
0.00294113
0.00294115
0.00294116
0.00294115
0.00294116
0.00294114
0.00294114
0.00294113
0.00294113
0.00294113
0.00294113
0.00294113
0.00294156
0.00294158
0.00294156
0.00294158
0.00294164
0.00294164
0.00294162
0.00294157
0.00294162
0.00294169
0.00294173
0.00294171
0.00294175
0.00294183
0.00294184
0.00294185
0.00294184
0.00294184
0.00294181
0.0029418
0.00294179
0.00294179
0.00294178
0.00294179
0.00294179
0.00294213
0.00294215
0.00294212
0.00294214
0.00294219
0.00294225
0.00294218
0.00294218
0.00294217
0.00294228
0.0029423
0.00294232
0.0029423
0.00294246
0.00294242
0.00294248
0.00294244
0.00294245
0.00294242
0.00294241
0.0029424
0.0029424
0.00294239
0.00294239
0.00294239
0.00294277
0.00294279
0.00294277
0.00294276
0.00294277
0.00294281
0.00294283
0.00294283
0.00294278
0.00294285
0.00294296
0.00294302
0.00294296
0.00294317
0.00294316
0.00294321
0.00294314
0.00294313
0.00294308
0.00294307
0.00294305
0.00294305
0.00294304
0.00294304
0.00294305
0.00294333
0.00294334
0.00294337
0.00294333
0.00294328
0.00294332
0.00294341
0.00294355
0.0029433
0.00294349
0.00294355
0.0029438
0.00294353
0.0029439
0.00294386
0.0029439
0.00294381
0.00294377
0.00294372
0.0029437
0.00294368
0.00294368
0.00294367
0.00294367
0.00294368
0.00294395
0.00294396
0.00294399
0.00294402
0.00294383
0.00294409
0.00294421
0.00294423
0.00294393
0.00294434
0.00294435
0.00294461
0.00294429
0.00294476
0.0029448
0.00294472
0.00294454
0.00294444
0.00294436
0.00294435
0.00294433
0.00294432
0.00294432
0.00294432
0.00294434
0.00294454
0.00294455
0.00294454
0.00294463
0.00294442
0.00294472
0.00294485
0.00294486
0.00294461
0.00294496
0.00294515
0.00294518
0.00294511
0.00294539
0.00294549
0.00294537
0.0029452
0.0029451
0.00294502
0.002945
0.00294497
0.00294496
0.00294496
0.00294495
0.00294495
0.00294523
0.00294522
0.00294519
0.00294527
0.00294523
0.00294538
0.00294547
0.00294547
0.00294553
0.00294571
0.00294575
0.00294574
0.00294576
0.0029459
0.00294593
0.00294588
0.00294578
0.0029457
0.00294567
0.00294564
0.00294564
0.00294563
0.00294562
0.00294559
0.00294558
0.0029459
0.00294588
0.00294585
0.00294593
0.00294594
0.00294601
0.00294617
0.00294615
0.00294621
0.00294628
0.00294635
0.00294629
0.00294638
0.00294637
0.00294644
0.00294641
0.00294638
0.00294633
0.00294633
0.0029463
0.00294631
0.00294629
0.00294628
0.00294622
0.00294621
0.00294663
0.00294664
0.00294658
0.00294672
0.00294667
0.00294675
0.00294682
0.0029468
0.00294689
0.00294689
0.00294695
0.00294688
0.00294696
0.00294696
0.00294699
0.002947
0.00294699
0.00294697
0.00294697
0.00294697
0.00294696
0.00294695
0.00294692
0.0029469
0.00294685
0.00294743
0.00294749
0.00294732
0.00294749
0.0029474
0.00294745
0.00294744
0.00294741
0.00294748
0.00294747
0.00294755
0.00294748
0.00294756
0.00294756
0.00294759
0.0029476
0.00294761
0.0029476
0.0029476
0.00294759
0.00294757
0.00294758
0.00294757
0.00294759
0.00294748
0.00294825
0.00294833
0.00294812
0.00294822
0.00294813
0.0029481
0.00294806
0.00294802
0.00294809
0.00294808
0.00294816
0.00294811
0.0029482
0.00294819
0.00294822
0.00294822
0.00294823
0.00294823
0.00294821
0.00294821
0.00294819
0.00294821
0.0029482
0.00294828
0.00294815
0.00294892
0.00294897
0.00294884
0.00294879
0.0029488
0.00294869
0.0029487
0.00294858
0.00294871
0.00294871
0.00294878
0.00294875
0.00294884
0.00294884
0.00294884
0.00294884
0.00294884
0.00294885
0.00294882
0.00294882
0.00294879
0.00294882
0.00294882
0.00294888
0.00294881
0.00294956
0.00294956
0.00294951
0.00294938
0.00294947
0.00294931
0.00294936
0.00294923
0.00294936
0.00294936
0.0029494
0.00294941
0.0029495
0.0029495
0.00294948
0.00294948
0.00294946
0.00294946
0.00294944
0.00294943
0.00294941
0.00294942
0.00294941
0.00294944
0.00294942
0.00295016
0.00295012
0.00295014
0.00294999
0.00295013
0.00294994
0.00295
0.0029499
0.00295001
0.00295
0.00295004
0.00295006
0.00295015
0.00295013
0.00295011
0.0029501
0.00295009
0.00295007
0.00295006
0.00295004
0.00295003
0.00295002
0.00295
0.00295002
0.00295001
0.0029508
0.00295076
0.00295078
0.00295063
0.00295079
0.00295062
0.00295064
0.00295061
0.00295067
0.00295068
0.0029507
0.00295073
0.0029508
0.00295079
0.00295076
0.00295075
0.00295072
0.00295071
0.00295068
0.00295065
0.00295063
0.00295062
0.00295061
0.00295061
0.0029506
0.00295143
0.00295141
0.00295142
0.0029513
0.00295142
0.00295133
0.00295128
0.00295135
0.00295133
0.00295137
0.00295135
0.0029514
0.00295143
0.00295144
0.0029514
0.0029514
0.00295136
0.00295134
0.0029513
0.00295126
0.00295125
0.00295122
0.00295121
0.00295119
0.00295119
0.00295209
0.00295208
0.00295208
0.00295201
0.00295206
0.00295208
0.00295196
0.00295213
0.00295201
0.00295207
0.00295202
0.00295207
0.00295206
0.0029521
0.00295205
0.00295206
0.00295203
0.00295197
0.00295191
0.00295186
0.00295185
0.00295181
0.00295181
0.00295177
0.00295179
0.00295275
0.00295275
0.00295274
0.00295275
0.0029527
0.00295284
0.00295266
0.00295293
0.0029527
0.00295279
0.00295269
0.00295274
0.00295269
0.00295275
0.0029527
0.00295272
0.00295268
0.00295259
0.00295251
0.00295244
0.00295241
0.00295238
0.00295238
0.00295235
0.00295239
0.00295342
0.00295345
0.00295344
0.00295355
0.00295338
0.00295361
0.0029534
0.00295373
0.00295343
0.0029535
0.00295337
0.00295341
0.00295335
0.0029534
0.00295335
0.00295337
0.00295336
0.00295323
0.00295316
0.00295309
0.00295305
0.00295302
0.00295302
0.00295302
0.00295306
0.00295409
0.00295416
0.00295417
0.0029544
0.00295411
0.00295439
0.00295415
0.00295449
0.00295416
0.0029542
0.00295406
0.00295406
0.00295399
0.00295401
0.00295399
0.00295401
0.00295401
0.00295392
0.00295386
0.00295381
0.00295377
0.00295375
0.00295374
0.00295375
0.00295378
0.00295479
0.0029549
0.00295497
0.00295525
0.00295492
0.00295514
0.00295492
0.00295522
0.00295492
0.0029549
0.00295476
0.00295473
0.00295465
0.00295463
0.00295464
0.00295466
0.00295462
0.00295462
0.00295457
0.00295455
0.00295453
0.00295452
0.00295451
0.00295452
0.00295453
0.00295556
0.00295566
0.00295578
0.00295598
0.00295573
0.00295584
0.00295566
0.00295586
0.00295566
0.00295558
0.00295547
0.0029554
0.00295532
0.00295525
0.00295529
0.00295528
0.00295527
0.0029553
0.0029553
0.0029553
0.0029553
0.0029553
0.00295529
0.0029553
0.0029553
0.00295635
0.00295643
0.00295654
0.00295665
0.00295651
0.00295651
0.00295639
0.00295647
0.00295638
0.00295626
0.00295619
0.00295611
0.00295602
0.0029559
0.00295593
0.00295591
0.00295596
0.00295601
0.00295605
0.00295606
0.00295608
0.00295608
0.00295609
0.00295609
0.00295609
0.00295711
0.00295716
0.00295723
0.00295726
0.00295723
0.00295717
0.0029571
0.00295708
0.00295709
0.00295697
0.00295693
0.00295685
0.00295677
0.00295664
0.00295664
0.00295663
0.00295672
0.00295677
0.00295682
0.00295684
0.00295686
0.00295687
0.00295688
0.00295689
0.00295689
0.00295787
0.00295787
0.00295792
0.00295788
0.00295793
0.00295783
0.00295782
0.00295772
0.00295782
0.0029577
0.00295771
0.00295763
0.00295758
0.00295747
0.00295747
0.00295745
0.00295754
0.00295757
0.00295763
0.00295764
0.00295767
0.00295768
0.00295769
0.0029577
0.0029577
0.00295863
0.0029586
0.00295863
0.00295852
0.00295863
0.00295853
0.00295857
0.00295842
0.00295857
0.00295848
0.00295851
0.00295845
0.00295842
0.00295834
0.00295835
0.00295833
0.0029584
0.00295841
0.00295845
0.00295847
0.0029585
0.0029585
0.00295852
0.00295852
0.00295853
0.00295941
0.00295936
0.00295938
0.0029592
0.00295938
0.00295929
0.00295937
0.00295922
0.00295937
0.00295929
0.00295934
0.00295929
0.00295929
0.00295922
0.00295924
0.00295922
0.00295927
0.00295927
0.0029593
0.00295931
0.00295934
0.00295934
0.00295936
0.00295936
0.00295937
0.00296023
0.00296017
0.00296018
0.00296
0.00296018
0.0029601
0.00296021
0.00296007
0.00296021
0.00296014
0.0029602
0.00296015
0.00296017
0.00296011
0.00296014
0.00296011
0.00296015
0.00296014
0.00296017
0.00296017
0.00296019
0.0029602
0.00296021
0.00296021
0.00296022
0.00296107
0.00296103
0.00296104
0.00296088
0.00296104
0.00296096
0.00296107
0.00296096
0.00296107
0.00296101
0.00296107
0.00296103
0.00296106
0.00296101
0.00296104
0.00296101
0.00296103
0.00296102
0.00296105
0.00296105
0.00296107
0.00296107
0.00296108
0.00296108
0.00296109
0.00296195
0.00296191
0.00296193
0.0029618
0.00296193
0.00296185
0.00296196
0.00296186
0.00296196
0.0029619
0.00296197
0.00296193
0.00296196
0.00296191
0.00296194
0.00296191
0.00296193
0.00296192
0.00296194
0.00296194
0.00296195
0.00296195
0.00296196
0.00296197
0.00296197
0.00296284
0.00296281
0.00296284
0.00296274
0.00296285
0.00296277
0.00296287
0.00296277
0.00296284
0.0029628
0.00296287
0.00296284
0.00296288
0.00296283
0.00296285
0.00296282
0.00296284
0.00296283
0.00296285
0.00296284
0.00296285
0.00296285
0.00296286
0.00296286
0.00296287
0.00296375
0.00296374
0.00296376
0.00296368
0.00296376
0.00296368
0.00296377
0.00296367
0.00296375
0.0029637
0.00296382
0.00296378
0.00296382
0.00296377
0.00296378
0.00296375
0.00296376
0.00296375
0.00296376
0.00296376
0.00296377
0.00296377
0.00296377
0.00296377
0.00296378
0.00296467
0.00296466
0.0029647
0.00296461
0.00296474
0.00296462
0.00296473
0.0029646
0.00296463
0.00296453
0.00296482
0.00296473
0.00296478
0.00296472
0.00296472
0.00296469
0.0029647
0.00296468
0.00296469
0.00296468
0.00296469
0.00296469
0.0029647
0.0029647
0.0029647
0.00296561
0.00296562
0.00296563
0.00296559
0.00296562
0.0029656
0.00296561
0.00296557
0.00296559
0.00296558
0.00296564
0.00296556
0.00296579
0.00296568
0.00296567
0.00296563
0.00296564
0.00296562
0.00296563
0.00296562
0.00296563
0.00296563
0.00296564
0.00296564
0.00296564
0.00296653
0.0029666
0.00296658
0.00296654
0.00296657
0.00296657
0.00296657
0.00296654
0.00296655
0.00296656
0.00296657
0.00296655
0.00296663
0.00296662
0.00296661
0.00296659
0.00296659
0.00296657
0.00296658
0.00296657
0.00296658
0.00296658
0.00296658
0.00296658
0.00296658
0.00296752
0.00296754
0.00296754
0.00296753
0.00296753
0.00296753
0.00296753
0.00296752
0.00296753
0.00296753
0.00296754
0.00296754
0.00296756
0.00296756
0.00296756
0.00296754
0.00296755
0.00296753
0.00296754
0.00296753
0.00296754
0.00296753
0.00296754
0.00296754
0.00296754
0.0029685
0.00296851
0.00296851
0.0029685
0.00296851
0.00296851
0.0029685
0.0029685
0.0029685
0.00296851
0.00296851
0.00296852
0.00296852
0.00296852
0.00296852
0.00296851
0.00296851
0.00296851
0.00296851
0.0029685
0.00296851
0.00296851
0.00296851
0.00296851
0.00296851
0.00296948
0.00296948
0.00296948
0.00296948
0.00296948
0.00296948
0.00296948
0.00296948
0.00296948
0.00296949
0.00296949
0.00296949
0.00296949
0.00296949
0.00296949
0.00296949
0.00296948
0.00296948
0.00296948
0.00296948
0.00296948
0.00296948
0.00296948
0.00296948
0.00296948
0.00297046
0.00297046
0.00297046
0.00297046
0.00297046
0.00297046
0.00297046
0.00297046
0.00297046
0.00297047
0.00297047
0.00297047
0.00297047
0.00297047
0.00297047
0.00297047
0.00297046
0.00297046
0.00297046
0.00297046
0.00297046
0.00297046
0.00297046
0.00297046
0.00297046
0.00297144
0.00297144
0.00297144
0.00297144
0.00297145
0.00297145
0.00297145
0.00297145
0.00297145
0.00297145
0.00297145
0.00297145
0.00297145
0.00297145
0.00297145
0.00297145
0.00297145
0.00297144
0.00297144
0.00297144
0.00297144
0.00297144
0.00297144
0.00297144
0.00297144
0.00297243
0.00297243
0.00297243
0.00297243
0.00297243
0.00297243
0.00297243
0.00297243
0.00297243
0.00297243
0.00297243
0.00297243
0.00297243
0.00297243
0.00297243
0.00297243
0.00297243
0.00297243
0.00297243
0.00297243
0.00297243
0.00297243
0.00297243
0.00297243
0.00297243
0.00297341
0.00297341
0.00297341
0.00297341
0.00297341
0.00297341
0.00297341
0.00297341
0.00297342
0.00297342
0.00297342
0.00297342
0.00297342
0.00297342
0.00297342
0.00297341
0.00297341
0.00297341
0.00297341
0.00297341
0.00297341
0.00297341
0.00297341
0.00297341
0.00297341
0.0029744
0.0029744
0.0029744
0.0029744
0.0029744
0.0029744
0.0029744
0.0029744
0.0029744
0.0029744
0.0029744
0.0029744
0.0029744
0.0029744
0.0029744
0.0029744
0.0029744
0.0029744
0.0029744
0.0029744
0.0029744
0.0029744
0.0029744
0.0029744
0.0029744
0.00297539
0.00297539
0.00297539
0.00297539
0.00297539
0.00297539
0.00297539
0.00297539
0.00297539
0.00297539
0.00297539
0.00297539
0.00297539
0.00297539
0.00297539
0.00297539
0.00297539
0.00297539
0.00297539
0.00297539
0.00297539
0.00297539
0.00297539
0.00297539
0.00297539
0.00297638
0.00297638
0.00297638
0.00297638
0.00297638
0.00297638
0.00297638
0.00297638
0.00297638
0.00297638
0.00297638
0.00297638
0.00297638
0.00297638
0.00297638
0.00297638
0.00297638
0.00297638
0.00297638
0.00297638
0.00297638
0.00297638
0.00297638
0.00297638
0.00297638
0.00297737
0.00297737
0.00297737
0.00297737
0.00297737
0.00297737
0.00297737
0.00297737
0.00297737
0.00297737
0.00297737
0.00297737
0.00297737
0.00297737
0.00297737
0.00297737
0.00297737
0.00297737
0.00297737
0.00297737
0.00297737
0.00297737
0.00297737
0.00297737
0.00297737
0.00297836
0.00297836
0.00297836
0.00297836
0.00297836
0.00297836
0.00297836
0.00297836
0.00297836
0.00297836
0.00297836
0.00297836
0.00297836
0.00297836
0.00297836
0.00297836
0.00297836
0.00297836
0.00297836
0.00297836
0.00297836
0.00297836
0.00297836
0.00297836
0.00297836
0.00297935
0.00297935
0.00297935
0.00297935
0.00297935
0.00297935
0.00297935
0.00297935
0.00297935
0.00297935
0.00297935
0.00297935
0.00297935
0.00297935
0.00297935
0.00297935
0.00297935
0.00297935
0.00297935
0.00297935
0.00297935
0.00297935
0.00297935
0.00297935
0.00297935
0.00298034
0.00298034
0.00298034
0.00298034
0.00298034
0.00298034
0.00298034
0.00298034
0.00298034
0.00298034
0.00298034
0.00298034
0.00298034
0.00298034
0.00298034
0.00298034
0.00298034
0.00298034
0.00298034
0.00298034
0.00298034
0.00298034
0.00298034
0.00298034
0.00298034
0.00298134
0.00298134
0.00298134
0.00298134
0.00298134
0.00298134
0.00298134
0.00298134
0.00298134
0.00298134
0.00298134
0.00298134
0.00298134
0.00298134
0.00298134
0.00298134
0.00298134
0.00298134
0.00298134
0.00298134
0.00298134
0.00298134
0.00298134
0.00298134
0.00298134
0.00298234
0.00298234
0.00298234
0.00298234
0.00298234
0.00298234
0.00298234
0.00298234
0.00298234
0.00298234
0.00298234
0.00298234
0.00298234
0.00298234
0.00298234
0.00298234
0.00298234
0.00298234
0.00298234
0.00298234
0.00298234
0.00298234
0.00298234
0.00298234
0.00298234
0.00298333
0.00298333
0.00298333
0.00298333
0.00298333
0.00298333
0.00298333
0.00298333
0.00298333
0.00298333
0.00298333
0.00298333
0.00298333
0.00298333
0.00298333
0.00298333
0.00298333
0.00298333
0.00298333
0.00298333
0.00298333
0.00298333
0.00298333
0.00298333
0.00298333
0.00298433
0.00298433
0.00298433
0.00298433
0.00298433
0.00298433
0.00298433
0.00298433
0.00298433
0.00298433
0.00298433
0.00298433
0.00298433
0.00298433
0.00298433
0.00298433
0.00298433
0.00298433
0.00298433
0.00298433
0.00298433
0.00298433
0.00298433
0.00298433
0.00298433
0.00298534
0.00298534
0.00298534
0.00298534
0.00298534
0.00298534
0.00298534
0.00298534
0.00298534
0.00298534
0.00298534
0.00298534
0.00298534
0.00298534
0.00298534
0.00298534
0.00298534
0.00298534
0.00298534
0.00298534
0.00298534
0.00298534
0.00298534
0.00298534
0.00298534
0.00298634
0.00298634
0.00298634
0.00298634
0.00298634
0.00298634
0.00298634
0.00298634
0.00298634
0.00298634
0.00298634
0.00298634
0.00298634
0.00298634
0.00298634
0.00298634
0.00298634
0.00298634
0.00298634
0.00298634
0.00298634
0.00298634
0.00298634
0.00298634
0.00298634
0.00298734
0.00298734
0.00298734
0.00298734
0.00298734
0.00298734
0.00298734
0.00298734
0.00298734
0.00298734
0.00298734
0.00298734
0.00298734
0.00298734
0.00298734
0.00298734
0.00298734
0.00298734
0.00298734
0.00298734
0.00298734
0.00298734
0.00298734
0.00298734
0.00298734
0.00298835
0.00298835
0.00298835
0.00298835
0.00298835
0.00298835
0.00298835
0.00298835
0.00298835
0.00298835
0.00298835
0.00298835
0.00298835
0.00298835
0.00298835
0.00298835
0.00298835
0.00298835
0.00298835
0.00298835
0.00298835
0.00298835
0.00298835
0.00298835
0.00298835
0.00298935
0.00298935
0.00298935
0.00298935
0.00298935
0.00298935
0.00298935
0.00298935
0.00298935
0.00298935
0.00298935
0.00298935
0.00298935
0.00298935
0.00298935
0.00298935
0.00298935
0.00298935
0.00298935
0.00298935
0.00298935
0.00298935
0.00298935
0.00298935
0.00298935
0.00299036
0.00299036
0.00299036
0.00299036
0.00299036
0.00299036
0.00299036
0.00299036
0.00299036
0.00299036
0.00299036
0.00299036
0.00299036
0.00299036
0.00299036
0.00299036
0.00299036
0.00299036
0.00299036
0.00299036
0.00299036
0.00299036
0.00299036
0.00299036
0.00299036
0.00299137
0.00299137
0.00299137
0.00299137
0.00299137
0.00299137
0.00299137
0.00299137
0.00299137
0.00299137
0.00299137
0.00299137
0.00299137
0.00299137
0.00299137
0.00299137
0.00299137
0.00299137
0.00299137
0.00299137
0.00299137
0.00299137
0.00299137
0.00299137
0.00299137
0.00299238
0.00299238
0.00299238
0.00299238
0.00299238
0.00299238
0.00299238
0.00299238
0.00299238
0.00299238
0.00299238
0.00299238
0.00299238
0.00299238
0.00299238
0.00299238
0.00299238
0.00299238
0.00299238
0.00299238
0.00299238
0.00299238
0.00299238
0.00299238
0.00299238
0.00299339
0.00299339
0.00299339
0.00299339
0.00299339
0.00299339
0.00299339
0.00299339
0.00299339
0.00299339
0.00299339
0.00299339
0.00299339
0.00299339
0.00299339
0.00299339
0.00299339
0.00299339
0.00299339
0.00299339
0.00299339
0.00299339
0.00299339
0.00299339
0.00299339
0.0029944
0.0029944
0.0029944
0.0029944
0.0029944
0.0029944
0.0029944
0.0029944
0.0029944
0.0029944
0.0029944
0.0029944
0.0029944
0.0029944
0.0029944
0.0029944
0.0029944
0.0029944
0.0029944
0.0029944
0.0029944
0.0029944
0.0029944
0.0029944
0.0029944
0.00299542
0.00299542
0.00299542
0.00299542
0.00299542
0.00299542
0.00299542
0.00299542
0.00299542
0.00299542
0.00299542
0.00299542
0.00299542
0.00299542
0.00299542
0.00299542
0.00299542
0.00299542
0.00299542
0.00299542
0.00299542
0.00299542
0.00299542
0.00299542
0.00299542
0.00299643
0.00299643
0.00299643
0.00299643
0.00299643
0.00299643
0.00299643
0.00299643
0.00299643
0.00299643
0.00299643
0.00299643
0.00299643
0.00299643
0.00299643
0.00299643
0.00299643
0.00299643
0.00299643
0.00299643
0.00299643
0.00299643
0.00299643
0.00299643
0.00299643
0.00299745
0.00299745
0.00299745
0.00299745
0.00299745
0.00299745
0.00299745
0.00299745
0.00299745
0.00299745
0.00299745
0.00299745
0.00299745
0.00299745
0.00299745
0.00299745
0.00299745
0.00299745
0.00299745
0.00299745
0.00299745
0.00299745
0.00299745
0.00299745
0.00299745
0.00299847
0.00299847
0.00299847
0.00299847
0.00299847
0.00299847
0.00299847
0.00299847
0.00299847
0.00299847
0.00299847
0.00299847
0.00299847
0.00299847
0.00299847
0.00299847
0.00299847
0.00299847
0.00299847
0.00299847
0.00299847
0.00299847
0.00299847
0.00299847
0.00299847
0.00299949
0.00299949
0.00299949
0.00299949
0.00299949
0.00299949
0.00299949
0.00299949
0.00299949
0.00299949
0.00299949
0.00299949
0.00299949
0.00299949
0.00299949
0.00299949
0.00299949
0.00299949
0.00299949
0.00299949
0.00299949
0.00299949
0.00299949
0.00299949
0.00299949
)
;

boundaryField
{
    inlet
    {
        type            calculated;
        value           nonuniform List<scalar> 
25
(
0.00293725
0.00293724
0.00293723
0.00293726
0.00293723
0.00293725
0.00293723
0.00293728
0.00293725
0.0029373
0.00293728
0.00293734
0.00293734
0.00293738
0.00293741
0.00293745
0.00293742
0.00293744
0.00293744
0.00293744
0.00293744
0.00293744
0.00293743
0.00293743
0.00293743
)
;
    }
    outlet
    {
        type            calculated;
        value           uniform 0.003;
    }
    walls
    {
        type            calculated;
        value           nonuniform List<scalar> 
150
(
0.00293721
0.00293797
0.0029385
0.00293918
0.00293971
0.00294037
0.00294092
0.00294156
0.00294213
0.00294277
0.00294333
0.00294395
0.00294454
0.00294523
0.0029459
0.00294663
0.00294743
0.00294825
0.00294892
0.00294956
0.00295016
0.0029508
0.00295143
0.00295209
0.00295275
0.00295342
0.00295409
0.00295479
0.00295556
0.00295635
0.00295711
0.00295787
0.00295863
0.00295941
0.00296023
0.00296107
0.00296195
0.00296284
0.00296375
0.00296467
0.00296561
0.00296653
0.00296752
0.0029685
0.00296948
0.00297046
0.00297144
0.00297243
0.00297341
0.0029744
0.00297539
0.00297638
0.00297737
0.00297836
0.00297935
0.00298034
0.00298134
0.00298234
0.00298333
0.00298433
0.00298534
0.00298634
0.00298734
0.00298835
0.00298935
0.00299036
0.00299137
0.00299238
0.00299339
0.0029944
0.00299542
0.00299643
0.00299745
0.00299847
0.00299949
0.0029374
0.00293815
0.00293869
0.00293935
0.0029399
0.00294055
0.00294113
0.00294179
0.00294239
0.00294305
0.00294368
0.00294434
0.00294495
0.00294558
0.00294621
0.00294685
0.00294748
0.00294815
0.00294881
0.00294942
0.00295001
0.0029506
0.00295119
0.00295179
0.00295239
0.00295306
0.00295378
0.00295453
0.0029553
0.00295609
0.00295689
0.0029577
0.00295853
0.00295937
0.00296022
0.00296109
0.00296197
0.00296287
0.00296378
0.0029647
0.00296564
0.00296658
0.00296754
0.00296851
0.00296948
0.00297046
0.00297144
0.00297243
0.00297341
0.0029744
0.00297539
0.00297638
0.00297737
0.00297836
0.00297935
0.00298034
0.00298134
0.00298234
0.00298333
0.00298433
0.00298534
0.00298634
0.00298734
0.00298835
0.00298935
0.00299036
0.00299137
0.00299238
0.00299339
0.0029944
0.00299542
0.00299643
0.00299745
0.00299847
0.00299949
)
;
    }
    frontAndBack
    {
        type            empty;
    }
}


// ************************************************************************* //
