/*--------------------------------*- C++ -*----------------------------------*\
  =========                 |
  \\      /  F ield         | OpenFOAM: The Open Source CFD Toolbox
   \\    /   O peration     | Website:  https://openfoam.org
    \\  /    A nd           | Version:  dev
     \\/     M anipulation  |
\*---------------------------------------------------------------------------*/
FoamFile
{
    version     2.0;
    format      ascii;
    class       volScalarField;
    location    "1";
    object      epsilonm;
}
// * * * * * * * * * * * * * * * * * * * * * * * * * * * * * * * * * * * * * //

dimensions      [0 2 -3 0 0 0 0];

internalField   nonuniform List<scalar> 
1875
(
0.490812
2.61423
2.57997
2.54432
2.5491
2.60012
2.60378
2.50808
2.61941
2.66738
2.75914
2.61521
2.65544
2.68069
2.65826
2.68374
2.70301
2.70944
2.70655
2.70588
2.6924
2.66774
2.66368
2.64033
0.510143
0.746161
0.706348
0.852841
0.749962
0.854657
0.936218
0.930524
0.748896
0.753076
0.939217
1.00164
0.929528
0.863609
0.855968
0.82312
0.784751
0.718319
0.766434
0.815115
0.814519
0.800641
0.776219
0.75675
0.758535
0.791807
0.740964
0.607382
0.76041
0.759493
0.780691
0.784727
0.784035
0.727676
0.694082
0.742715
0.762555
0.735735
0.718965
0.738971
0.770984
0.982406
0.748143
0.724326
0.72884
0.726342
0.723443
0.71729
0.702866
0.694534
0.719333
0.677853
0.614106
0.697172
0.670368
0.785345
0.738894
0.73617
0.659904
0.615798
0.714719
0.730238
0.692903
0.669316
0.671057
0.67408
0.977953
0.755916
0.643918
0.649557
0.65619
0.653134
0.649652
0.641577
0.633946
0.634922
0.709999
0.84857
0.703943
0.705812
0.97387
0.812398
0.736681
0.721756
0.705346
0.773602
0.778098
0.739417
0.724945
0.697504
0.726753
1.04803
0.858781
0.682774
0.66089
0.664299
0.662041
0.659103
0.65538
0.649561
0.632568
0.6677
0.866536
0.617595
0.642262
1.00629
1.01322
0.751847
0.660458
0.622886
0.822308
0.870552
0.762738
0.732055
0.682528
0.686067
1.11085
0.973382
0.674123
0.601303
0.608422
0.609555
0.613525
0.615121
0.618589
0.609745
0.6749
0.957621
0.632453
0.657094
1.07847
1.16843
0.838685
0.692183
0.657722
0.850936
0.918746
0.709252
0.744586
0.754912
0.993439
1.18134
1.10138
0.744857
0.597398
0.594192
0.599536
0.611033
0.616759
0.620001
0.608584
0.660128
0.923725
0.616075
0.611654
0.976576
1.18686
0.855108
0.69208
0.639927
0.848978
0.840232
0.680649
0.70705
0.872933
1.10837
1.24548
1.15978
0.82176
0.588715
0.570489
0.574725
0.589473
0.598045
0.60351
0.607889
0.675819
0.974527
0.741183
0.632659
0.89143
1.00296
0.671015
0.602573
0.694307
0.852092
0.572472
0.571925
0.596327
0.98922
1.31993
1.30611
1.21287
0.872752
0.594084
0.574054
0.578876
0.585364
0.593757
0.598905
0.627942
0.687336
0.94019
0.892202
0.662513
0.807427
0.720172
0.501981
0.569441
0.642881
0.745792
0.433896
0.496981
0.464113
0.744365
1.37296
1.40235
1.21908
0.935199
0.612055
0.574453
0.580328
0.585107
0.593784
0.604433
0.719149
0.72953
0.988643
1.1103
0.75719
0.857797
0.571299
0.521906
0.55122
0.678099
0.742158
0.471043
0.578947
0.481395
0.677304
1.55854
1.52809
1.29445
0.96218
0.603587
0.572348
0.585888
0.589309
0.601896
0.632881
0.87337
0.752688
1.01768
1.00774
0.751494
0.625858
0.533091
0.440193
0.521861
0.66742
0.584448
0.503211
0.554432
0.690152
0.73133
1.37779
1.46107
1.23576
0.95575
0.630263
0.603194
0.596438
0.604217
0.62139
0.736217
1.02115
0.808784
1.12722
0.67115
0.678467
0.497729
0.381462
0.292594
0.716812
0.678967
0.443404
0.32055
0.57051
0.5438
0.437819
0.734456
1.00405
1.15951
0.971036
0.675087
0.621449
0.62059
0.650518
0.710481
0.908404
1.11564
0.83941
0.962112
0.391802
0.693053
0.446848
0.289201
0.477497
0.839527
0.493288
0.329162
0.334152
0.651402
0.356065
0.275282
0.632408
0.957741
1.14216
0.907419
0.701019
0.643415
0.679457
0.782353
0.869125
0.996312
1.16006
0.840542
0.642788
0.349886
0.657515
0.386453
0.333544
0.677981
0.666361
0.328029
0.285288
0.477094
0.685422
0.291905
0.350666
0.825799
1.03573
1.09775
0.865211
0.759782
0.73802
0.832634
0.92684
0.963879
1.03524
1.19307
0.896172
0.537899
0.358711
0.649494
0.376648
0.380985
0.690953
0.559092
0.280481
0.3288
0.550924
0.639093
0.293403
0.491666
0.936916
1.09874
1.00471
0.845029
0.861482
0.911234
0.972198
1.02928
1.04737
1.06798
1.08785
0.973119
0.501054
0.394287
0.668809
0.358411
0.331094
0.733867
0.50051
0.239318
0.340975
0.577671
0.527222
0.321544
0.618875
1.03291
1.10716
1.04007
0.874967
0.973342
1.03463
1.04411
1.08112
1.09123
1.03071
0.591548
1.00407
0.434536
0.385561
0.547767
0.316813
0.266777
0.553585
0.456606
0.242445
0.34855
0.581056
0.443828
0.341316
0.737123
1.0573
1.14067
1.08389
0.920433
1.02306
1.06828
1.05192
1.12883
1.07605
0.913931
0.370756
1.02646
0.412486
0.342511
0.503611
0.299854
0.235687
0.430029
0.452829
0.25641
0.352239
0.552139
0.419244
0.357492
0.826519
1.09613
1.14011
1.14187
1.03921
1.01293
1.03215
1.0313
1.18363
1.11382
0.851591
0.351879
1.03886
0.465507
0.305147
0.499729
0.306719
0.234854
0.390719
0.429282
0.26224
0.347629
0.467594
0.407978
0.376882
0.969474
1.11814
1.18
1.15672
1.12785
1.03249
1.02287
1.09085
1.18324
1.1668
0.946482
0.363534
1.03726
0.505138
0.28584
0.528833
0.309766
0.236491
0.372365
0.418208
0.255792
0.335275
0.415208
0.394119
0.386173
1.04916
1.13979
1.1701
1.18374
1.2032
1.14092
1.04788
1.1585
1.16701
1.18899
1.01185
0.360477
1.04544
0.524893
0.284872
0.563305
0.307093
0.234801
0.361979
0.408838
0.243937
0.317908
0.379274
0.379423
0.394208
1.11186
1.14274
1.19977
1.20279
1.23337
1.20301
1.16371
1.18769
1.16066
1.19111
1.06406
0.339989
1.05364
0.527853
0.286133
0.56458
0.313827
0.221208
0.355867
0.415219
0.233453
0.286584
0.344366
0.356697
0.405204
1.13165
1.16523
1.18807
1.23492
1.24298
1.20932
1.16026
1.17841
1.12488
1.17885
0.967732
0.304914
1.08926
0.516733
0.2878
0.54849
0.330932
0.206059
0.358032
0.419834
0.231695
0.254294
0.310804
0.330934
0.422763
1.17535
1.16829
1.19212
1.23292
1.15201
0.968581
0.864014
0.960341
0.898682
0.971869
0.632604
0.284048
1.10485
0.488767
0.293648
0.546101
0.343847
0.197566
0.368776
0.421934
0.227048
0.220369
0.277056
0.299269
0.434429
1.19009
1.20298
1.14664
1.18989
0.792494
0.569853
0.498356
0.574334
0.545219
0.571627
0.421907
0.283539
0.987328
0.419342
0.310394
0.56191
0.353916
0.184864
0.379121
0.448141
0.227266
0.189712
0.246815
0.264851
0.428934
1.20546
1.22481
1.15575
1.13013
0.491477
0.40736
0.380265
0.412463
0.405321
0.413161
0.342689
0.286903
0.611875
0.32531
0.330314
0.575794
0.372514
0.166094
0.388908
0.548865
0.23482
0.16306
0.222534
0.232714
0.38453
1.11118
1.2807
1.19705
0.971038
0.383169
0.340415
0.334108
0.349913
0.346159
0.341247
0.317219
0.28567
0.401826
0.25462
0.339062
0.631283
0.378373
0.142963
0.383496
0.708255
0.24379
0.140791
0.20336
0.20779
0.31804
0.864111
1.3385
1.26048
0.658979
0.333261
0.312129
0.311278
0.320677
0.316817
0.311652
0.30494
0.278623
0.306013
0.198395
0.325036
0.832917
0.36405
0.12358
0.353746
0.794652
0.246005
0.124366
0.188979
0.193618
0.25734
0.594579
1.16117
1.02369
0.470362
0.306959
0.301607
0.300026
0.305773
0.30099
0.297852
0.296099
0.267929
0.261548
0.159696
0.314145
0.982574
0.330593
0.108733
0.31641
0.950803
0.238543
0.1118
0.179306
0.187046
0.219784
0.465661
0.709313
0.617598
0.407962
0.300816
0.301546
0.295104
0.297069
0.290893
0.289218
0.288159
0.25321
0.238619
0.138677
0.342486
1.18513
0.313614
0.0988654
0.263483
0.818046
0.231424
0.100944
0.172132
0.181971
0.194432
0.386118
0.502857
0.462306
0.35888
0.306171
0.303097
0.292241
0.290039
0.282238
0.280669
0.278947
0.237242
0.225722
0.127639
0.346266
1.21215
0.306599
0.0931263
0.204637
0.538792
0.208154
0.0925495
0.164982
0.17819
0.169791
0.317139
0.386693
0.363167
0.32263
0.304909
0.298422
0.285488
0.280455
0.272284
0.270353
0.267505
0.220115
0.218462
0.118562
0.306179
0.830281
0.283313
0.0883223
0.157869
0.429216
0.173168
0.0851875
0.155586
0.173234
0.146691
0.272517
0.319927
0.305925
0.298911
0.293026
0.285287
0.272761
0.267042
0.259089
0.256846
0.253219
0.201311
0.211927
0.107909
0.238797
0.561821
0.238114
0.0821009
0.125928
0.346887
0.138235
0.076669
0.143594
0.165463
0.125202
0.244507
0.286428
0.276597
0.277761
0.273685
0.265787
0.255197
0.249675
0.242447
0.239972
0.236262
0.180785
0.20064
0.0961894
0.168954
0.428929
0.182101
0.0716565
0.105582
0.285208
0.108416
0.0660645
0.128584
0.153177
0.104992
0.220037
0.262582
0.254815
0.254933
0.249807
0.242372
0.234232
0.229007
0.222854
0.220195
0.216859
0.15833
0.178894
0.0832611
0.118088
0.314297
0.136262
0.0581415
0.0915189
0.248934
0.0848114
0.0544497
0.112178
0.137994
0.0860628
0.195289
0.238042
0.232399
0.228943
0.223718
0.216747
0.210867
0.205988
0.200921
0.198225
0.195429
0.134163
0.148355
0.0689083
0.084718
0.24494
0.102088
0.0437205
0.0774859
0.224447
0.0618864
0.042266
0.0925853
0.119551
0.0676959
0.167696
0.20974
0.206311
0.20016
0.196064
0.189778
0.185626
0.181177
0.177149
0.174554
0.17235
0.108687
0.113027
0.0534213
0.0610333
0.205546
0.0755133
0.0302731
0.0638642
0.196168
0.0445457
0.030421
0.0743295
0.0999075
0.050549
0.138484
0.1771
0.177425
0.169883
0.167872
0.162018
0.159337
0.155218
0.152168
0.149739
0.148026
0.0828251
0.0776905
0.0371298
0.0422819
0.174407
0.0551115
0.0191963
0.0510698
0.167754
0.0276628
0.0211818
0.0548965
0.0796989
0.0347012
0.109252
0.143513
0.146496
0.139377
0.139005
0.133842
0.132124
0.128531
0.126178
0.124117
0.122699
0.0580786
0.0468609
0.0225123
0.0276487
0.144611
0.0326213
0.0113371
0.0346511
0.134723
0.0138536
0.0130059
0.0360563
0.0591175
0.02111
0.0798341
0.111586
0.115106
0.109202
0.110305
0.105706
0.105057
0.101805
0.10021
0.0984016
0.0972416
0.0363713
0.0240273
0.0101157
0.0162347
0.104557
0.0169396
0.00448685
0.0211705
0.093962
0.00540715
0.0052564
0.0216881
0.0411274
0.0104878
0.0542982
0.0809632
0.0849813
0.0803268
0.0819519
0.0783687
0.0782255
0.0756179
0.0744048
0.0730263
0.0718551
0.0196478
0.0101218
0.00248282
0.00747504
0.069402
0.00703502
0.000688757
0.0110182
0.0595123
0.000777509
0.000968933
0.0106447
0.0249722
0.00373606
0.0323426
0.0533691
0.0562221
0.0539663
0.0549901
0.0529932
0.0525213
0.051145
0.0500912
0.0493117
0.0481591
0.00875831
0.00319461
0.000294408
0.00202707
0.0400272
0.00136249
5.55628e-05
0.00361866
0.0303018
3.8958e-05
9.15964e-05
0.00342654
0.0114721
0.00074683
0.0144505
0.0298317
0.0323685
0.0308856
0.0324264
0.0305905
0.0309733
0.0295792
0.0292504
0.0284906
0.0274139
0.00299972
0.000720317
2.90746e-05
0.000252307
0.0160035
0.000104771
1.03536e-05
0.000531916
0.0104487
8.50706e-06
1.32193e-05
0.000476098
0.00304129
8.65642e-05
0.00373917
0.0123904
0.0139682
0.0133441
0.0143717
0.0133752
0.0137656
0.0129317
0.0127377
0.0123693
0.0113287
0.000750474
0.000135537
1.03276e-05
2.75831e-05
0.00353133
1.13102e-05
6.36921e-06
4.52674e-05
0.0016209
6.73674e-06
6.71015e-06
3.82656e-05
0.000315641
1.32169e-05
0.000385052
0.0028008
0.00331055
0.00327277
0.00361842
0.00335384
0.00347132
0.00320917
0.00311592
0.00300069
0.00239426
0.000153934
4.46179e-05
8.33667e-06
8.43226e-06
0.000290604
6.88005e-06
6.13534e-06
9.55642e-06
0.000105347
6.5304e-06
6.20699e-06
9.04005e-06
2.49216e-05
6.81515e-06
2.92967e-05
0.000247761
0.000307724
0.000314941
0.000358113
0.000331082
0.000343719
0.000314248
0.000299595
0.000287489
0.000205973
4.87135e-05
3.40306e-05
8.13052e-06
6.68222e-06
2.25994e-05
6.63114e-06
6.11615e-06
6.66563e-06
1.18005e-05
6.46214e-06
6.16345e-06
6.53744e-06
7.32438e-06
6.36719e-06
8.15883e-06
2.15327e-05
2.48811e-05
2.55949e-05
2.81823e-05
2.67551e-05
2.7471e-05
2.5794e-05
2.48273e-05
2.41777e-05
2.02358e-05
3.52466e-05
3.21779e-05
8.01392e-06
6.51597e-06
6.83353e-06
6.54521e-06
6.10794e-06
6.45388e-06
6.33462e-06
6.40443e-06
6.14595e-06
6.36046e-06
6.13685e-06
6.30731e-06
6.6758e-06
7.09457e-06
7.03722e-06
7.11006e-06
7.25576e-06
7.19527e-06
7.22879e-06
7.14371e-06
7.07851e-06
7.09013e-06
8.29276e-06
3.2895e-05
3.1888e-05
7.96006e-06
6.44326e-06
6.08291e-06
6.46911e-06
6.09888e-06
6.39214e-06
6.0934e-06
6.35122e-06
6.13096e-06
6.30783e-06
6.07869e-06
6.2644e-06
6.5256e-06
6.29544e-06
6.08794e-06
6.09106e-06
6.09748e-06
6.09517e-06
6.09634e-06
6.09296e-06
6.09069e-06
6.12938e-06
7.60268e-06
3.25252e-05
3.16754e-05
7.94884e-06
6.38313e-06
6.04816e-06
6.39969e-06
6.09043e-06
6.33731e-06
6.07494e-06
6.30263e-06
6.11771e-06
6.26495e-06
6.06888e-06
6.22461e-06
6.44151e-06
6.22698e-06
6.04476e-06
6.04457e-06
6.04459e-06
6.04419e-06
6.04418e-06
6.04394e-06
6.04478e-06
6.08322e-06
7.53331e-06
3.2312e-05
3.14153e-05
7.92647e-06
6.32666e-06
6.04446e-06
6.33899e-06
6.08458e-06
6.28789e-06
6.06673e-06
6.25719e-06
6.10677e-06
6.22893e-06
6.06212e-06
6.19112e-06
6.3763e-06
6.19511e-06
6.04261e-06
6.04213e-06
6.04198e-06
6.04161e-06
6.04128e-06
6.0408e-06
6.04168e-06
6.07954e-06
7.51035e-06
3.20972e-05
3.11415e-05
7.8624e-06
6.27258e-06
6.04194e-06
6.28151e-06
6.07825e-06
6.2427e-06
6.05919e-06
6.21429e-06
6.0966e-06
6.19435e-06
6.05563e-06
6.16193e-06
6.31633e-06
6.16622e-06
6.04215e-06
6.0414e-06
6.04141e-06
6.041e-06
6.04056e-06
6.04028e-06
6.04091e-06
6.07706e-06
7.49279e-06
3.18866e-05
3.08992e-05
7.81237e-06
6.22163e-06
6.04027e-06
6.22472e-06
6.06964e-06
6.19847e-06
6.05243e-06
6.17368e-06
6.08471e-06
6.16152e-06
6.0495e-06
6.13361e-06
6.25879e-06
6.13897e-06
6.042e-06
6.04132e-06
6.04093e-06
6.0403e-06
6.04018e-06
6.04004e-06
6.0405e-06
6.0747e-06
7.45254e-06
3.16916e-05
3.06461e-05
7.80555e-06
6.17441e-06
6.03975e-06
6.17383e-06
6.06349e-06
6.15736e-06
6.04757e-06
6.13797e-06
6.07483e-06
6.13157e-06
6.04452e-06
6.1085e-06
6.20462e-06
6.11603e-06
6.04203e-06
6.04129e-06
6.04031e-06
6.03995e-06
6.03969e-06
6.03955e-06
6.04001e-06
6.07236e-06
7.40802e-06
3.15e-05
3.03482e-05
7.81218e-06
6.13496e-06
6.0401e-06
6.1337e-06
6.06158e-06
6.12349e-06
6.0447e-06
6.1089e-06
6.06996e-06
6.10602e-06
6.0414e-06
6.09011e-06
6.15978e-06
6.09855e-06
6.04226e-06
6.0411e-06
6.04002e-06
6.03975e-06
6.03905e-06
6.03871e-06
6.03923e-06
6.06987e-06
7.38481e-06
3.13141e-05
3.00021e-05
7.81058e-06
6.10424e-06
6.04095e-06
6.10221e-06
6.06077e-06
6.0959e-06
6.04327e-06
6.086e-06
6.06749e-06
6.08641e-06
6.03951e-06
6.07634e-06
6.12634e-06
6.08666e-06
6.04272e-06
6.04062e-06
6.03986e-06
6.03936e-06
6.03864e-06
6.0383e-06
6.03866e-06
6.06699e-06
7.34724e-06
3.1142e-05
2.96308e-05
7.77651e-06
6.08035e-06
6.0408e-06
6.07729e-06
6.05889e-06
6.07357e-06
6.04132e-06
6.06727e-06
6.06326e-06
6.07087e-06
6.03783e-06
6.06409e-06
6.10081e-06
6.076e-06
6.04286e-06
6.04022e-06
6.03944e-06
6.03866e-06
6.03828e-06
6.03788e-06
6.03808e-06
6.06396e-06
7.29343e-06
3.09697e-05
2.93185e-05
7.6377e-06
6.06208e-06
6.03931e-06
6.0588e-06
6.05363e-06
6.05715e-06
6.038e-06
6.05315e-06
6.0563e-06
6.05811e-06
6.03658e-06
6.05379e-06
6.07979e-06
6.06473e-06
6.04257e-06
6.03973e-06
6.0389e-06
6.03815e-06
6.03763e-06
6.0371e-06
6.03728e-06
6.06133e-06
7.25293e-06
3.08189e-05
2.91011e-05
7.28442e-06
6.04961e-06
6.03596e-06
6.0468e-06
6.04635e-06
6.04649e-06
6.03538e-06
6.04407e-06
6.04868e-06
6.04876e-06
6.03581e-06
6.046e-06
6.06304e-06
6.05483e-06
6.04142e-06
6.03875e-06
6.03825e-06
6.0375e-06
6.03679e-06
6.03641e-06
6.03655e-06
6.05861e-06
7.21548e-06
3.06719e-05
2.89672e-05
6.9621e-06
6.04224e-06
6.03396e-06
6.04004e-06
6.04102e-06
6.04035e-06
6.03403e-06
6.03881e-06
6.04261e-06
6.0428e-06
6.03534e-06
6.04057e-06
6.05131e-06
6.04726e-06
6.03929e-06
6.03777e-06
6.0372e-06
6.03653e-06
6.03612e-06
6.03594e-06
6.03604e-06
6.0555e-06
7.16231e-06
3.05367e-05
2.88619e-05
6.76096e-06
6.03834e-06
6.03321e-06
6.03648e-06
6.03761e-06
6.03698e-06
6.0336e-06
6.03607e-06
6.03874e-06
6.03895e-06
6.03505e-06
6.03749e-06
6.0437e-06
6.04178e-06
6.03752e-06
6.03681e-06
6.03622e-06
6.03577e-06
6.03553e-06
6.03536e-06
6.03547e-06
6.05282e-06
7.11266e-06
3.04105e-05
2.87749e-05
6.66954e-06
6.03644e-06
6.03308e-06
6.03476e-06
6.03557e-06
6.03526e-06
6.03359e-06
6.0348e-06
6.03644e-06
6.03658e-06
6.03475e-06
6.03596e-06
6.03907e-06
6.03821e-06
6.03623e-06
6.03576e-06
6.03543e-06
6.03519e-06
6.03491e-06
6.03475e-06
6.03492e-06
6.05042e-06
7.06657e-06
3.03007e-05
2.87531e-05
6.63186e-06
6.03553e-06
6.03312e-06
6.03399e-06
6.03437e-06
6.03436e-06
6.0336e-06
6.03414e-06
6.03501e-06
6.03519e-06
6.03437e-06
6.03495e-06
6.03645e-06
6.03615e-06
6.03525e-06
6.035e-06
6.03481e-06
6.0346e-06
6.03439e-06
6.03434e-06
6.03453e-06
6.04816e-06
7.02051e-06
3.02044e-05
2.87655e-05
6.61815e-06
6.03509e-06
6.03316e-06
6.03358e-06
6.03372e-06
6.03386e-06
6.03357e-06
6.03375e-06
6.03417e-06
6.03438e-06
6.03406e-06
6.03425e-06
6.03505e-06
6.03494e-06
6.03452e-06
6.03441e-06
6.03422e-06
6.03411e-06
6.03405e-06
6.034e-06
6.03413e-06
6.04603e-06
6.9782e-06
3.01129e-05
2.87761e-05
6.61382e-06
6.03488e-06
6.03316e-06
6.03333e-06
6.03343e-06
6.03357e-06
6.03346e-06
6.03354e-06
6.03374e-06
6.03387e-06
6.03379e-06
6.03381e-06
6.0342e-06
6.03413e-06
6.034e-06
6.03395e-06
6.03377e-06
6.03377e-06
6.03376e-06
6.03366e-06
6.03377e-06
6.04429e-06
6.94367e-06
3.0033e-05
2.88054e-05
6.61313e-06
6.03477e-06
6.03315e-06
6.0332e-06
6.03326e-06
6.03337e-06
6.03334e-06
6.03338e-06
6.03349e-06
6.03354e-06
6.03352e-06
6.03355e-06
6.03367e-06
6.03364e-06
6.03364e-06
6.03363e-06
6.03351e-06
6.03356e-06
6.03347e-06
6.03339e-06
6.03349e-06
6.04281e-06
6.91425e-06
2.99623e-05
2.88503e-05
6.61335e-06
6.03464e-06
6.03309e-06
6.03309e-06
6.03306e-06
6.03315e-06
6.03316e-06
6.03319e-06
6.03325e-06
6.03325e-06
6.03327e-06
6.03332e-06
6.03333e-06
6.03339e-06
6.03337e-06
6.03335e-06
6.03335e-06
6.03343e-06
6.03328e-06
6.03322e-06
6.03334e-06
6.04139e-06
6.87516e-06
2.99002e-05
2.89144e-05
6.61444e-06
6.03454e-06
6.03294e-06
6.03303e-06
6.03293e-06
6.03299e-06
6.03301e-06
6.03306e-06
6.03306e-06
6.03307e-06
6.03308e-06
6.03313e-06
6.03311e-06
6.03321e-06
6.03318e-06
6.03314e-06
6.03317e-06
6.03327e-06
6.03315e-06
6.03309e-06
6.03318e-06
6.04026e-06
6.8433e-06
2.98438e-05
2.89763e-05
6.61665e-06
6.0345e-06
6.03287e-06
6.03298e-06
6.0329e-06
6.03292e-06
6.03294e-06
6.03302e-06
6.03296e-06
6.03298e-06
6.03298e-06
6.03299e-06
6.033e-06
6.03309e-06
6.03308e-06
6.03304e-06
6.03303e-06
6.0331e-06
6.03307e-06
6.033e-06
6.03305e-06
6.03946e-06
6.82291e-06
2.97921e-05
2.8968e-05
6.61876e-06
6.03448e-06
6.03284e-06
6.0329e-06
6.03287e-06
6.03287e-06
6.03288e-06
6.03297e-06
6.0329e-06
6.03292e-06
6.03294e-06
6.03292e-06
6.03295e-06
6.033e-06
6.03301e-06
6.03298e-06
6.03295e-06
6.03297e-06
6.03302e-06
6.03294e-06
6.03298e-06
6.03864e-06
6.79264e-06
2.9757e-05
2.91686e-05
6.6208e-06
6.03445e-06
6.03279e-06
6.03282e-06
6.03282e-06
6.03281e-06
6.03283e-06
6.03288e-06
6.03284e-06
6.03286e-06
6.03288e-06
6.03288e-06
6.03288e-06
6.03293e-06
6.03297e-06
6.03292e-06
6.03292e-06
6.03289e-06
6.03296e-06
6.03289e-06
6.03293e-06
6.03801e-06
6.77984e-06
2.97177e-05
2.89306e-05
6.62207e-06
6.03444e-06
6.03278e-06
6.03279e-06
6.0328e-06
6.0328e-06
6.03281e-06
6.03284e-06
6.03283e-06
6.03284e-06
6.03285e-06
6.03286e-06
6.03285e-06
6.0329e-06
6.03291e-06
6.03287e-06
6.03289e-06
6.03286e-06
6.03288e-06
6.03287e-06
6.03289e-06
6.03743e-06
6.75639e-06
2.96618e-05
2.92834e-05
6.62377e-06
6.03444e-06
6.03277e-06
6.03278e-06
6.03278e-06
6.03279e-06
6.0328e-06
6.03281e-06
6.03282e-06
6.03282e-06
6.03282e-06
6.03284e-06
6.03282e-06
6.03286e-06
6.03283e-06
6.03281e-06
6.03284e-06
6.03282e-06
6.0328e-06
6.03282e-06
6.03284e-06
6.03697e-06
6.73612e-06
2.97369e-05
2.8867e-05
6.6246e-06
6.03444e-06
6.03276e-06
6.03277e-06
6.03277e-06
6.03278e-06
6.03277e-06
6.03279e-06
6.03281e-06
6.03281e-06
6.0328e-06
6.03282e-06
6.03281e-06
6.0328e-06
6.03279e-06
6.03279e-06
6.03281e-06
6.0328e-06
6.03277e-06
6.03279e-06
6.03281e-06
6.03651e-06
6.73222e-06
2.94964e-05
2.92882e-05
6.62757e-06
6.03496e-06
6.03327e-06
6.03328e-06
6.03328e-06
6.03328e-06
6.03327e-06
6.0333e-06
6.0333e-06
6.0333e-06
6.03328e-06
6.0333e-06
6.0333e-06
6.03327e-06
6.03327e-06
6.03327e-06
6.03328e-06
6.03328e-06
6.03324e-06
6.03326e-06
6.03327e-06
6.03669e-06
6.71852e-06
2.97058e-05
)
;

boundaryField
{
    inlet
    {
        type            fixedValue;
        value           uniform 0.00015;
    }
    outlet
    {
        type            inletOutlet;
        inletValue      uniform 0.00015;
        value           nonuniform List<scalar> 
25
(
2.92882e-05
6.62757e-06
6.03496e-06
6.03327e-06
6.03328e-06
6.03328e-06
6.03328e-06
6.03327e-06
6.0333e-06
6.0333e-06
6.0333e-06
6.03328e-06
6.0333e-06
6.0333e-06
6.03327e-06
6.03327e-06
6.03327e-06
6.03328e-06
6.03328e-06
6.03324e-06
6.03326e-06
6.03327e-06
6.03669e-06
6.71852e-06
2.97058e-05
)
;
    }
    walls
    {
        type            fixedValue;
        value           nonuniform List<scalar> 
150
(
0.250297
0.370812
0.300062
0.14676
0.122769
0.0950497
0.0985075
0.103366
0.111084
0.1421
0.16928
0.164962
0.151274
0.17045
0.216275
0.343315
0.468811
0.515137
0.55667
0.612244
0.677651
0.746645
0.788137
0.819585
0.823539
0.72202
0.440462
0.290194
0.219451
0.184764
0.16593
0.15809
0.156825
0.156171
0.150665
0.135895
0.112997
0.0859712
0.058963
0.0353972
0.0176792
0.00731244
0.00222833
0.000487693
0.000103067
4.64436e-05
3.95452e-05
3.81677e-05
3.78814e-05
3.76406e-05
3.735e-05
3.70381e-05
3.67467e-05
3.64734e-05
3.61257e-05
3.57025e-05
3.52582e-05
3.48989e-05
3.46545e-05
3.4497e-05
3.43289e-05
3.41272e-05
3.40096e-05
3.39847e-05
3.39891e-05
3.40087e-05
3.40546e-05
3.41514e-05
3.42315e-05
3.4331e-05
3.43891e-05
3.44837e-05
3.45048e-05
3.45768e-05
3.46337e-05
0.250693
0.413668
0.313551
0.228495
0.197809
0.181849
0.184241
0.199021
0.249324
0.364902
0.512827
0.64036
0.724191
0.774798
0.81098
0.723258
0.298641
0.0916703
0.0485708
0.0394205
0.0582795
0.0753926
0.0896346
0.103466
0.125237
0.147523
0.161696
0.166238
0.164447
0.158848
0.151419
0.143003
0.13326
0.122029
0.10891
0.0938773
0.0772062
0.0595796
0.0421367
0.0265079
0.0140618
0.00619656
0.00206986
0.000506214
0.000114896
4.93206e-05
4.06709e-05
3.89352e-05
3.85826e-05
3.83425e-05
3.80962e-05
3.7853e-05
3.76284e-05
3.74073e-05
3.71917e-05
3.69923e-05
3.67923e-05
3.66165e-05
3.64453e-05
3.62881e-05
3.61405e-05
3.6012e-05
3.58994e-05
3.5793e-05
3.56991e-05
3.56162e-05
3.55444e-05
3.54773e-05
3.54183e-05
3.53755e-05
3.53269e-05
3.52909e-05
3.52548e-05
3.52438e-05
3.51818e-05
)
;
    }
    frontAndBack
    {
        type            empty;
    }
}


// ************************************************************************* //
