/*--------------------------------*- C++ -*----------------------------------*\
  =========                 |
  \\      /  F ield         | OpenFOAM: The Open Source CFD Toolbox
   \\    /   O peration     | Website:  https://openfoam.org
    \\  /    A nd           | Version:  dev
     \\/     M anipulation  |
\*---------------------------------------------------------------------------*/
FoamFile
{
    version     2.0;
    format      ascii;
    class       volScalarField;
    location    "1";
    object      epsilon.water;
}
// * * * * * * * * * * * * * * * * * * * * * * * * * * * * * * * * * * * * * //

dimensions      [0 2 -3 0 0 0 0];

internalField   nonuniform List<scalar> 
1875
(
0.490812
2.61423
2.57997
2.54432
2.5491
2.60012
2.60378
2.50808
2.61941
2.66738
2.75914
2.61521
2.65544
2.68069
2.65826
2.68374
2.70301
2.70944
2.70655
2.70588
2.6924
2.66774
2.66368
2.64033
0.510143
0.746161
0.706348
0.852841
0.749962
0.854657
0.936218
0.930524
0.748896
0.753076
0.939217
1.00164
0.929528
0.863609
0.855968
0.82312
0.784751
0.718319
0.766434
0.815115
0.814519
0.800641
0.776219
0.75675
0.758535
0.791807
0.740964
0.607382
0.76041
0.759493
0.780691
0.784727
0.784035
0.727676
0.694082
0.742715
0.762555
0.735735
0.718965
0.738971
0.770984
0.982406
0.748143
0.724326
0.72884
0.726342
0.723443
0.71729
0.702866
0.694534
0.719333
0.677853
0.614106
0.697172
0.670368
0.785345
0.738894
0.73617
0.659904
0.615798
0.714719
0.730238
0.692903
0.669316
0.671057
0.67408
0.977953
0.755916
0.643918
0.649557
0.65619
0.653134
0.649652
0.641577
0.633946
0.634922
0.709999
0.84857
0.703943
0.705812
0.97387
0.812398
0.736681
0.721756
0.705346
0.773602
0.778098
0.739417
0.724945
0.697504
0.726753
1.04803
0.858781
0.682774
0.66089
0.664299
0.662041
0.659103
0.65538
0.649561
0.632568
0.6677
0.866536
0.617595
0.642262
1.00629
1.01322
0.751847
0.660458
0.622886
0.822308
0.870552
0.762738
0.732055
0.682528
0.686067
1.11085
0.973382
0.674123
0.601303
0.608422
0.609555
0.613525
0.615121
0.618589
0.609745
0.6749
0.957621
0.632453
0.657094
1.07847
1.16843
0.838685
0.692183
0.657722
0.850936
0.918746
0.709252
0.744586
0.754912
0.993439
1.18134
1.10138
0.744857
0.597398
0.594192
0.599536
0.611033
0.616759
0.620001
0.608584
0.660128
0.923725
0.616075
0.611654
0.976576
1.18686
0.855108
0.69208
0.639927
0.848978
0.840232
0.680649
0.70705
0.872933
1.10837
1.24548
1.15978
0.82176
0.588715
0.570489
0.574725
0.589473
0.598045
0.60351
0.607889
0.675819
0.974527
0.741183
0.632659
0.89143
1.00296
0.671015
0.602573
0.694307
0.852092
0.572472
0.571925
0.596327
0.98922
1.31993
1.30611
1.21287
0.872752
0.594084
0.574054
0.578876
0.585364
0.593757
0.598905
0.627942
0.687336
0.94019
0.892202
0.662513
0.807427
0.720172
0.501981
0.569441
0.642881
0.745792
0.433896
0.496981
0.464113
0.744365
1.37296
1.40235
1.21908
0.935199
0.612055
0.574453
0.580328
0.585107
0.593784
0.604433
0.719149
0.72953
0.988643
1.1103
0.75719
0.857797
0.571299
0.521906
0.55122
0.678099
0.742158
0.471043
0.578947
0.481395
0.677304
1.55854
1.52809
1.29445
0.96218
0.603587
0.572348
0.585888
0.589309
0.601896
0.632881
0.87337
0.752688
1.01768
1.00774
0.751494
0.625858
0.533091
0.440193
0.521861
0.66742
0.584448
0.503211
0.554432
0.690152
0.73133
1.37779
1.46107
1.23576
0.95575
0.630263
0.603194
0.596438
0.604217
0.62139
0.736217
1.02115
0.808784
1.12722
0.67115
0.678467
0.497729
0.381462
0.292594
0.716812
0.678967
0.443404
0.32055
0.57051
0.5438
0.437819
0.734456
1.00405
1.15951
0.971036
0.675087
0.621449
0.62059
0.650518
0.710481
0.908404
1.11564
0.83941
0.962112
0.391802
0.693053
0.446848
0.289201
0.477497
0.839527
0.493288
0.329162
0.334152
0.651402
0.356065
0.275282
0.632408
0.957741
1.14216
0.907419
0.701019
0.643415
0.679457
0.782353
0.869125
0.996312
1.16006
0.840542
0.642788
0.349886
0.657515
0.386453
0.333544
0.677981
0.666361
0.328029
0.285288
0.477094
0.685422
0.291905
0.350666
0.825799
1.03573
1.09775
0.865211
0.759782
0.73802
0.832634
0.92684
0.963879
1.03524
1.19307
0.896172
0.537899
0.358711
0.649494
0.376648
0.380985
0.690953
0.559092
0.280481
0.3288
0.550924
0.639093
0.293403
0.491666
0.936916
1.09874
1.00471
0.845029
0.861482
0.911234
0.972198
1.02928
1.04737
1.06798
1.08785
0.973119
0.501054
0.394287
0.668809
0.358411
0.331094
0.733867
0.50051
0.239318
0.340975
0.577671
0.527222
0.321544
0.618875
1.03291
1.10716
1.04007
0.874967
0.973342
1.03463
1.04411
1.08112
1.09123
1.03071
0.591548
1.00407
0.434536
0.385561
0.547767
0.316813
0.266777
0.553585
0.456606
0.242445
0.34855
0.581056
0.443828
0.341316
0.737123
1.0573
1.14067
1.08389
0.920433
1.02306
1.06828
1.05192
1.12883
1.07605
0.913931
0.370756
1.02646
0.412486
0.342511
0.503611
0.299854
0.235687
0.430029
0.452829
0.25641
0.352239
0.552139
0.419244
0.357492
0.826519
1.09613
1.14011
1.14187
1.03921
1.01293
1.03215
1.0313
1.18363
1.11382
0.851591
0.351879
1.03886
0.465507
0.305147
0.499729
0.306719
0.234854
0.390719
0.429282
0.26224
0.347629
0.467594
0.407978
0.376882
0.969474
1.11814
1.18
1.15672
1.12785
1.03249
1.02287
1.09085
1.18324
1.1668
0.946482
0.363534
1.03726
0.505138
0.28584
0.528833
0.309766
0.236491
0.372365
0.418208
0.255792
0.335275
0.415208
0.394119
0.386173
1.04916
1.13979
1.1701
1.18374
1.2032
1.14092
1.04788
1.1585
1.16701
1.18899
1.01185
0.360477
1.04544
0.524893
0.284872
0.563305
0.307093
0.234801
0.361979
0.408838
0.243937
0.317908
0.379274
0.379423
0.394208
1.11186
1.14274
1.19977
1.20279
1.23337
1.20301
1.16371
1.18769
1.16066
1.19111
1.06406
0.339989
1.05364
0.527853
0.286133
0.56458
0.313827
0.221208
0.355867
0.415219
0.233453
0.286584
0.344366
0.356697
0.405204
1.13165
1.16523
1.18807
1.23492
1.24298
1.20932
1.16026
1.17841
1.12488
1.17885
0.967732
0.304914
1.08926
0.516733
0.2878
0.54849
0.330932
0.206059
0.358032
0.419834
0.231695
0.254294
0.310804
0.330934
0.422763
1.17535
1.16829
1.19212
1.23292
1.15201
0.968581
0.864014
0.960341
0.898682
0.971869
0.632604
0.284048
1.10485
0.488767
0.293648
0.546101
0.343847
0.197566
0.368776
0.421934
0.227048
0.220369
0.277056
0.299269
0.434429
1.19009
1.20298
1.14664
1.18989
0.792494
0.569853
0.498356
0.574334
0.545219
0.571627
0.421907
0.283539
0.987328
0.419342
0.310394
0.56191
0.353916
0.184864
0.379121
0.448141
0.227266
0.189712
0.246815
0.264851
0.428934
1.20546
1.22481
1.15575
1.13013
0.491477
0.40736
0.380265
0.412463
0.405321
0.413161
0.342689
0.286903
0.611875
0.32531
0.330314
0.575794
0.372514
0.16609
0.388908
0.548865
0.23482
0.163059
0.222534
0.232714
0.38453
1.11118
1.2807
1.19705
0.971038
0.383169
0.340415
0.334108
0.349913
0.346159
0.341247
0.317219
0.28567
0.401826
0.25462
0.339062
0.631283
0.378373
0.142948
0.383496
0.708255
0.24379
0.140769
0.20336
0.20779
0.31804
0.864111
1.3385
1.26048
0.658979
0.333261
0.312129
0.311278
0.320677
0.316817
0.311652
0.30494
0.278623
0.306013
0.198395
0.325036
0.832917
0.36405
0.123525
0.353746
0.794652
0.246005
0.124207
0.188979
0.193618
0.25734
0.594579
1.16117
1.02369
0.470362
0.306959
0.301607
0.300026
0.305773
0.30099
0.297852
0.296099
0.267929
0.261548
0.159691
0.314145
0.982574
0.330593
0.108559
0.31641
0.950803
0.238543
0.111345
0.179306
0.187046
0.219784
0.465661
0.709313
0.617598
0.407962
0.300816
0.301546
0.295104
0.297069
0.290893
0.289218
0.288159
0.25321
0.238619
0.138633
0.342486
1.18513
0.313614
0.0984686
0.263483
0.818046
0.231424
0.100209
0.172127
0.181971
0.194429
0.386118
0.502857
0.462306
0.35888
0.306171
0.303097
0.292241
0.290039
0.282238
0.280669
0.278947
0.237242
0.225722
0.127419
0.346266
1.21215
0.306599
0.0924701
0.204637
0.538792
0.208154
0.0917461
0.164924
0.178178
0.169564
0.317139
0.386693
0.363167
0.32263
0.304909
0.298422
0.285488
0.280455
0.272284
0.270353
0.267505
0.220115
0.218462
0.117945
0.306179
0.830281
0.283313
0.0875561
0.157723
0.429216
0.173142
0.0844853
0.155286
0.173156
0.145857
0.272517
0.319927
0.305925
0.298911
0.293026
0.285287
0.272761
0.267042
0.259089
0.256846
0.253219
0.201311
0.211927
0.107015
0.238797
0.561821
0.238114
0.0814336
0.124998
0.346887
0.137432
0.0761147
0.142848
0.165174
0.124136
0.244506
0.286428
0.276597
0.277761
0.273685
0.265787
0.255197
0.249675
0.242447
0.239972
0.236262
0.180782
0.20064
0.0953715
0.168571
0.428929
0.181965
0.0711681
0.104669
0.285208
0.107473
0.0656437
0.127546
0.152488
0.104108
0.220021
0.262582
0.254815
0.254933
0.249807
0.242372
0.234232
0.229007
0.222853
0.220193
0.216857
0.158281
0.178891
0.0826382
0.117049
0.314297
0.135146
0.0577931
0.0908182
0.248934
0.0842009
0.0541285
0.111209
0.13695
0.0854427
0.195104
0.23804
0.232396
0.228939
0.223711
0.216734
0.210846
0.205956
0.200873
0.198165
0.195359
0.133876
0.14829
0.0684608
0.0841268
0.244919
0.101274
0.0434641
0.0769698
0.224413
0.0615114
0.042018
0.091884
0.11851
0.0672754
0.166924
0.209664
0.206218
0.20002
0.195888
0.189538
0.185335
0.180827
0.176734
0.174096
0.171868
0.108046
0.112621
0.0531052
0.0606692
0.205175
0.0750298
0.0300841
0.0634798
0.195858
0.044283
0.0302318
0.0738538
0.0991251
0.0502526
0.137316
0.176468
0.176797
0.169111
0.167065
0.161122
0.158402
0.154233
0.151145
0.148694
0.146975
0.0821274
0.0770601
0.0369106
0.0420297
0.173416
0.0547879
0.0190675
0.0507713
0.166738
0.0274853
0.0210405
0.0545742
0.0791765
0.0344876
0.108362
0.142329
0.145314
0.138195
0.137826
0.132684
0.130977
0.127408
0.125075
0.123033
0.121628
0.0576086
0.0464885
0.0223677
0.0274703
0.143359
0.0324163
0.0112625
0.0344379
0.133542
0.0137593
0.0129189
0.0358364
0.0587693
0.0209678
0.0793139
0.110672
0.114145
0.108318
0.109407
0.104867
0.104227
0.101017
0.0994432
0.0976575
0.0965104
0.0361268
0.0238772
0.0100467
0.0161239
0.103759
0.0168236
0.00446418
0.0210285
0.0933038
0.0053768
0.00522832
0.0215428
0.0408806
0.0104189
0.0539784
0.0804375
0.0844159
0.0798062
0.0814156
0.0778664
0.0777248
0.0751405
0.0739383
0.0725715
0.0714093
0.0195324
0.0100627
0.00246913
0.00743061
0.0689828
0.00699364
0.000687274
0.0109455
0.0591605
0.000775699
0.000966634
0.0105747
0.0248069
0.0037195
0.0321364
0.0530547
0.0558908
0.0536486
0.0546663
0.0526812
0.0522122
0.0508436
0.0497959
0.0490206
0.0478745
0.00870627
0.00317365
0.000293752
0.00202062
0.0397792
0.00135892
5.55427e-05
0.00360257
0.0301045
3.89466e-05
9.15545e-05
0.00341116
0.011396
0.000745586
0.0143512
0.0296383
0.0321613
0.0306868
0.0322192
0.0303934
0.030774
0.0293875
0.0290603
0.0283048
0.0272344
0.00297979
0.000715696
2.90636e-05
0.000252097
0.0158927
0.000104726
1.03533e-05
0.000531112
0.01038
8.50694e-06
1.32187e-05
0.000475331
0.00302855
8.65368e-05
0.00372169
0.0123066
0.0138728
0.0132532
0.0142732
0.0132841
0.0136717
0.012844
0.0126515
0.0122859
0.0112528
0.000745704
0.000135127
1.03273e-05
2.75799e-05
0.00351591
1.13098e-05
6.36921e-06
4.52568e-05
0.00161625
6.73673e-06
6.71012e-06
3.82556e-05
0.000315285
1.32164e-05
0.000384567
0.00278985
0.00329661
0.00325904
0.00360249
0.0033396
0.00345634
0.00319582
0.00310316
0.00298858
0.00238501
0.000153436
4.45967e-05
8.33665e-06
8.43217e-06
0.000290356
6.88004e-06
6.13534e-06
9.55621e-06
0.000105308
6.5304e-06
6.20699e-06
9.03984e-06
2.49186e-05
6.81514e-06
2.92927e-05
0.000247565
0.000307444
0.000314646
0.000357747
0.00033076
0.000343376
0.000313951
0.000299323
0.000287233
0.000205806
4.8684e-05
3.40295e-05
8.13052e-06
6.68222e-06
2.2598e-05
6.63114e-06
6.11615e-06
6.66562e-06
1.18002e-05
6.46214e-06
6.16345e-06
6.53744e-06
7.32433e-06
6.36719e-06
8.15877e-06
2.15313e-05
2.48792e-05
2.55928e-05
2.81797e-05
2.67528e-05
2.74685e-05
2.57919e-05
2.48253e-05
2.41758e-05
2.02344e-05
3.52449e-05
3.21778e-05
8.01392e-06
6.51597e-06
6.83352e-06
6.54521e-06
6.10794e-06
6.45388e-06
6.33462e-06
6.40443e-06
6.14595e-06
6.36046e-06
6.13685e-06
6.30731e-06
6.6758e-06
7.09456e-06
7.0372e-06
7.11004e-06
7.25573e-06
7.19524e-06
7.22877e-06
7.14369e-06
7.07849e-06
7.09011e-06
8.29274e-06
3.2895e-05
3.1888e-05
7.96006e-06
6.44326e-06
6.08291e-06
6.46911e-06
6.09888e-06
6.39214e-06
6.0934e-06
6.35122e-06
6.13096e-06
6.30783e-06
6.07869e-06
6.2644e-06
6.5256e-06
6.29544e-06
6.08794e-06
6.09106e-06
6.09748e-06
6.09517e-06
6.09634e-06
6.09295e-06
6.09069e-06
6.12938e-06
7.60268e-06
3.25252e-05
3.16754e-05
7.94884e-06
6.38313e-06
6.04816e-06
6.39969e-06
6.09043e-06
6.33731e-06
6.07494e-06
6.30263e-06
6.11771e-06
6.26495e-06
6.06888e-06
6.22461e-06
6.44151e-06
6.22698e-06
6.04476e-06
6.04457e-06
6.04459e-06
6.04419e-06
6.04418e-06
6.04394e-06
6.04478e-06
6.08322e-06
7.53331e-06
3.2312e-05
3.14153e-05
7.92647e-06
6.32666e-06
6.04446e-06
6.33899e-06
6.08458e-06
6.28789e-06
6.06673e-06
6.25719e-06
6.10677e-06
6.22893e-06
6.06212e-06
6.19112e-06
6.3763e-06
6.19511e-06
6.04261e-06
6.04213e-06
6.04198e-06
6.04161e-06
6.04128e-06
6.0408e-06
6.04168e-06
6.07954e-06
7.51035e-06
3.20972e-05
3.11415e-05
7.8624e-06
6.27258e-06
6.04194e-06
6.28151e-06
6.07825e-06
6.2427e-06
6.05919e-06
6.21429e-06
6.0966e-06
6.19435e-06
6.05563e-06
6.16193e-06
6.31633e-06
6.16622e-06
6.04215e-06
6.0414e-06
6.04141e-06
6.041e-06
6.04056e-06
6.04028e-06
6.04091e-06
6.07706e-06
7.49279e-06
3.18866e-05
3.08992e-05
7.81237e-06
6.22163e-06
6.04027e-06
6.22472e-06
6.06964e-06
6.19847e-06
6.05243e-06
6.17368e-06
6.08471e-06
6.16152e-06
6.0495e-06
6.13361e-06
6.25879e-06
6.13897e-06
6.042e-06
6.04132e-06
6.04093e-06
6.0403e-06
6.04018e-06
6.04004e-06
6.0405e-06
6.0747e-06
7.45254e-06
3.16916e-05
3.06461e-05
7.80555e-06
6.17441e-06
6.03975e-06
6.17383e-06
6.06349e-06
6.15736e-06
6.04757e-06
6.13797e-06
6.07483e-06
6.13157e-06
6.04452e-06
6.1085e-06
6.20462e-06
6.11603e-06
6.04203e-06
6.04129e-06
6.04031e-06
6.03995e-06
6.03969e-06
6.03955e-06
6.04001e-06
6.07236e-06
7.40802e-06
3.15e-05
3.03482e-05
7.81218e-06
6.13496e-06
6.0401e-06
6.1337e-06
6.06158e-06
6.12349e-06
6.0447e-06
6.1089e-06
6.06996e-06
6.10602e-06
6.0414e-06
6.09011e-06
6.15978e-06
6.09855e-06
6.04226e-06
6.0411e-06
6.04002e-06
6.03975e-06
6.03905e-06
6.03871e-06
6.03923e-06
6.06987e-06
7.38481e-06
3.13141e-05
3.00021e-05
7.81058e-06
6.10424e-06
6.04095e-06
6.10221e-06
6.06077e-06
6.0959e-06
6.04327e-06
6.086e-06
6.06749e-06
6.08641e-06
6.03951e-06
6.07634e-06
6.12634e-06
6.08666e-06
6.04272e-06
6.04062e-06
6.03986e-06
6.03936e-06
6.03864e-06
6.0383e-06
6.03866e-06
6.06699e-06
7.34724e-06
3.1142e-05
2.96308e-05
7.77651e-06
6.08035e-06
6.0408e-06
6.07729e-06
6.05889e-06
6.07357e-06
6.04132e-06
6.06727e-06
6.06326e-06
6.07087e-06
6.03783e-06
6.06409e-06
6.10081e-06
6.076e-06
6.04286e-06
6.04022e-06
6.03944e-06
6.03866e-06
6.03828e-06
6.03788e-06
6.03808e-06
6.06396e-06
7.29343e-06
3.09697e-05
2.93185e-05
7.6377e-06
6.06208e-06
6.03931e-06
6.0588e-06
6.05363e-06
6.05715e-06
6.038e-06
6.05315e-06
6.0563e-06
6.05811e-06
6.03658e-06
6.05379e-06
6.07979e-06
6.06473e-06
6.04257e-06
6.03973e-06
6.0389e-06
6.03815e-06
6.03763e-06
6.0371e-06
6.03728e-06
6.06133e-06
7.25293e-06
3.08189e-05
2.91011e-05
7.28442e-06
6.04961e-06
6.03596e-06
6.0468e-06
6.04635e-06
6.04649e-06
6.03538e-06
6.04407e-06
6.04868e-06
6.04876e-06
6.03581e-06
6.046e-06
6.06304e-06
6.05483e-06
6.04142e-06
6.03875e-06
6.03825e-06
6.0375e-06
6.03679e-06
6.03641e-06
6.03655e-06
6.05861e-06
7.21548e-06
3.06719e-05
2.89672e-05
6.9621e-06
6.04224e-06
6.03396e-06
6.04004e-06
6.04102e-06
6.04035e-06
6.03403e-06
6.03881e-06
6.04261e-06
6.0428e-06
6.03534e-06
6.04057e-06
6.05131e-06
6.04726e-06
6.03929e-06
6.03777e-06
6.0372e-06
6.03653e-06
6.03612e-06
6.03594e-06
6.03604e-06
6.0555e-06
7.16231e-06
3.05367e-05
2.88619e-05
6.76096e-06
6.03834e-06
6.03321e-06
6.03648e-06
6.03761e-06
6.03698e-06
6.0336e-06
6.03607e-06
6.03874e-06
6.03895e-06
6.03505e-06
6.03749e-06
6.0437e-06
6.04178e-06
6.03752e-06
6.03681e-06
6.03622e-06
6.03577e-06
6.03553e-06
6.03536e-06
6.03547e-06
6.05282e-06
7.11266e-06
3.04105e-05
2.87749e-05
6.66954e-06
6.03644e-06
6.03308e-06
6.03476e-06
6.03557e-06
6.03526e-06
6.03359e-06
6.0348e-06
6.03644e-06
6.03658e-06
6.03475e-06
6.03596e-06
6.03907e-06
6.03821e-06
6.03623e-06
6.03576e-06
6.03543e-06
6.03519e-06
6.03491e-06
6.03475e-06
6.03492e-06
6.05042e-06
7.06657e-06
3.03007e-05
2.87531e-05
6.63186e-06
6.03553e-06
6.03312e-06
6.03399e-06
6.03437e-06
6.03436e-06
6.0336e-06
6.03414e-06
6.03501e-06
6.03519e-06
6.03437e-06
6.03495e-06
6.03645e-06
6.03615e-06
6.03525e-06
6.035e-06
6.03481e-06
6.0346e-06
6.03439e-06
6.03434e-06
6.03453e-06
6.04816e-06
7.02051e-06
3.02044e-05
2.87655e-05
6.61815e-06
6.03509e-06
6.03316e-06
6.03358e-06
6.03372e-06
6.03386e-06
6.03357e-06
6.03375e-06
6.03417e-06
6.03438e-06
6.03406e-06
6.03425e-06
6.03505e-06
6.03494e-06
6.03452e-06
6.03441e-06
6.03422e-06
6.03411e-06
6.03405e-06
6.034e-06
6.03413e-06
6.04603e-06
6.9782e-06
3.01129e-05
2.87761e-05
6.61382e-06
6.03488e-06
6.03316e-06
6.03333e-06
6.03343e-06
6.03357e-06
6.03346e-06
6.03354e-06
6.03374e-06
6.03387e-06
6.03379e-06
6.03381e-06
6.0342e-06
6.03413e-06
6.034e-06
6.03395e-06
6.03377e-06
6.03377e-06
6.03376e-06
6.03366e-06
6.03377e-06
6.04429e-06
6.94367e-06
3.0033e-05
2.88054e-05
6.61313e-06
6.03477e-06
6.03315e-06
6.0332e-06
6.03326e-06
6.03337e-06
6.03334e-06
6.03338e-06
6.03349e-06
6.03354e-06
6.03352e-06
6.03355e-06
6.03367e-06
6.03364e-06
6.03364e-06
6.03363e-06
6.03351e-06
6.03356e-06
6.03347e-06
6.03339e-06
6.03349e-06
6.04281e-06
6.91425e-06
2.99623e-05
2.88503e-05
6.61335e-06
6.03464e-06
6.03309e-06
6.03309e-06
6.03306e-06
6.03315e-06
6.03316e-06
6.03319e-06
6.03325e-06
6.03325e-06
6.03327e-06
6.03332e-06
6.03333e-06
6.03339e-06
6.03337e-06
6.03335e-06
6.03335e-06
6.03343e-06
6.03328e-06
6.03322e-06
6.03334e-06
6.04139e-06
6.87516e-06
2.99002e-05
2.89144e-05
6.61444e-06
6.03454e-06
6.03294e-06
6.03303e-06
6.03293e-06
6.03299e-06
6.03301e-06
6.03306e-06
6.03306e-06
6.03307e-06
6.03308e-06
6.03313e-06
6.03311e-06
6.03321e-06
6.03318e-06
6.03314e-06
6.03317e-06
6.03327e-06
6.03315e-06
6.03309e-06
6.03318e-06
6.04026e-06
6.8433e-06
2.98438e-05
2.89763e-05
6.61665e-06
6.0345e-06
6.03287e-06
6.03298e-06
6.0329e-06
6.03292e-06
6.03294e-06
6.03302e-06
6.03296e-06
6.03298e-06
6.03298e-06
6.03299e-06
6.033e-06
6.03309e-06
6.03308e-06
6.03304e-06
6.03303e-06
6.0331e-06
6.03307e-06
6.033e-06
6.03305e-06
6.03946e-06
6.82291e-06
2.97921e-05
2.8968e-05
6.61876e-06
6.03448e-06
6.03284e-06
6.0329e-06
6.03287e-06
6.03287e-06
6.03288e-06
6.03297e-06
6.0329e-06
6.03292e-06
6.03294e-06
6.03292e-06
6.03295e-06
6.033e-06
6.03301e-06
6.03298e-06
6.03295e-06
6.03297e-06
6.03302e-06
6.03294e-06
6.03298e-06
6.03864e-06
6.79264e-06
2.9757e-05
2.91686e-05
6.6208e-06
6.03445e-06
6.03279e-06
6.03282e-06
6.03282e-06
6.03281e-06
6.03283e-06
6.03288e-06
6.03284e-06
6.03286e-06
6.03288e-06
6.03288e-06
6.03288e-06
6.03293e-06
6.03297e-06
6.03292e-06
6.03292e-06
6.03289e-06
6.03296e-06
6.03289e-06
6.03293e-06
6.03801e-06
6.77984e-06
2.97177e-05
2.89306e-05
6.62207e-06
6.03444e-06
6.03278e-06
6.03279e-06
6.0328e-06
6.0328e-06
6.03281e-06
6.03284e-06
6.03283e-06
6.03284e-06
6.03285e-06
6.03286e-06
6.03285e-06
6.0329e-06
6.03291e-06
6.03287e-06
6.03289e-06
6.03286e-06
6.03288e-06
6.03287e-06
6.03289e-06
6.03743e-06
6.75639e-06
2.96618e-05
2.92834e-05
6.62377e-06
6.03444e-06
6.03277e-06
6.03278e-06
6.03278e-06
6.03279e-06
6.0328e-06
6.03281e-06
6.03282e-06
6.03282e-06
6.03282e-06
6.03284e-06
6.03282e-06
6.03286e-06
6.03283e-06
6.03281e-06
6.03284e-06
6.03282e-06
6.0328e-06
6.03282e-06
6.03284e-06
6.03697e-06
6.73612e-06
2.97369e-05
2.8867e-05
6.6246e-06
6.03444e-06
6.03276e-06
6.03277e-06
6.03277e-06
6.03278e-06
6.03277e-06
6.03279e-06
6.03281e-06
6.03281e-06
6.0328e-06
6.03282e-06
6.03281e-06
6.0328e-06
6.03279e-06
6.03279e-06
6.03281e-06
6.0328e-06
6.03277e-06
6.03279e-06
6.03281e-06
6.03651e-06
6.73222e-06
2.94964e-05
2.92882e-05
6.62757e-06
6.03496e-06
6.03327e-06
6.03328e-06
6.03328e-06
6.03328e-06
6.03327e-06
6.0333e-06
6.0333e-06
6.0333e-06
6.03328e-06
6.0333e-06
6.0333e-06
6.03327e-06
6.03327e-06
6.03327e-06
6.03328e-06
6.03328e-06
6.03324e-06
6.03326e-06
6.03327e-06
6.03669e-06
6.71852e-06
2.97058e-05
)
;

boundaryField
{
    inlet
    {
        type            fixedValue;
        value           uniform 0.00015;
    }
    outlet
    {
        type            inletOutlet;
        phi             phi.water;
        inletValue      uniform 0.00015;
        value           nonuniform List<scalar> 
25
(
2.92882e-05
6.62757e-06
6.03496e-06
6.03327e-06
6.03328e-06
6.03328e-06
6.03328e-06
6.03327e-06
6.0333e-06
6.0333e-06
6.0333e-06
6.03328e-06
6.0333e-06
6.0333e-06
6.03327e-06
6.03327e-06
6.03327e-06
6.03328e-06
6.03328e-06
6.03324e-06
6.03326e-06
6.03327e-06
6.03669e-06
6.71852e-06
2.97058e-05
)
;
    }
    walls
    {
        Cmu             0.09;
        kappa           0.41;
        E               9.8;
        type            epsilonWallFunction;
        value           nonuniform List<scalar> 
150
(
0.250297
0.370812
0.300062
0.14676
0.122769
0.0950497
0.0985075
0.103366
0.111084
0.1421
0.16928
0.164962
0.151274
0.17045
0.216275
0.343315
0.468811
0.515137
0.55667
0.612244
0.677651
0.746645
0.788137
0.819585
0.823539
0.72202
0.440462
0.290194
0.219451
0.184764
0.16593
0.15809
0.156825
0.156171
0.150665
0.135892
0.112922
0.085497
0.0581978
0.0349386
0.0178229
0.00733431
0.00222393
0.000484631
0.000102521
4.6393e-05
3.9542e-05
3.81676e-05
3.78814e-05
3.76406e-05
3.735e-05
3.70381e-05
3.67467e-05
3.64734e-05
3.61257e-05
3.57025e-05
3.52582e-05
3.48989e-05
3.46545e-05
3.4497e-05
3.43289e-05
3.41272e-05
3.40096e-05
3.39847e-05
3.39891e-05
3.40087e-05
3.40546e-05
3.41514e-05
3.42315e-05
3.4331e-05
3.43891e-05
3.44837e-05
3.45048e-05
3.45768e-05
3.46337e-05
0.250693
0.413668
0.313551
0.228495
0.197809
0.181849
0.184241
0.199021
0.249324
0.364902
0.512827
0.64036
0.724191
0.774798
0.81098
0.723258
0.298641
0.0916703
0.0485708
0.0394205
0.0582795
0.0753926
0.0896346
0.103466
0.125237
0.147523
0.161696
0.166238
0.164447
0.158848
0.151419
0.143003
0.13326
0.122026
0.10886
0.0935723
0.076494
0.0587727
0.041581
0.0262154
0.0141468
0.00620831
0.00206495
0.000503115
0.000114269
4.92534e-05
4.06661e-05
3.8935e-05
3.85826e-05
3.83425e-05
3.80962e-05
3.7853e-05
3.76284e-05
3.74073e-05
3.71917e-05
3.69923e-05
3.67923e-05
3.66165e-05
3.64453e-05
3.62881e-05
3.61405e-05
3.6012e-05
3.58994e-05
3.5793e-05
3.56991e-05
3.56162e-05
3.55444e-05
3.54773e-05
3.54183e-05
3.53755e-05
3.53269e-05
3.52909e-05
3.52548e-05
3.52438e-05
3.51818e-05
)
;
    }
    frontAndBack
    {
        type            empty;
    }
}


// ************************************************************************* //
