/*--------------------------------*- C++ -*----------------------------------*\
  =========                 |
  \\      /  F ield         | OpenFOAM: The Open Source CFD Toolbox
   \\    /   O peration     | Website:  https://openfoam.org
    \\  /    A nd           | Version:  dev
     \\/     M anipulation  |
\*---------------------------------------------------------------------------*/
FoamFile
{
    version     2.0;
    format      ascii;
    class       volScalarField;
    location    "1";
    object      epsilon.air;
}
// * * * * * * * * * * * * * * * * * * * * * * * * * * * * * * * * * * * * * //

dimensions      [0 2 -3 0 0 0 0];

internalField   nonuniform List<scalar> 
1875
(
0.490812
2.61423
2.57997
2.54432
2.5491
2.60012
2.60378
2.50808
2.61941
2.66738
2.75914
2.61521
2.65544
2.68069
2.65826
2.68374
2.70301
2.70944
2.70655
2.70588
2.6924
2.66774
2.66368
2.64033
0.510143
0.746161
0.706348
0.852841
0.749962
0.854657
0.936218
0.930524
0.748896
0.753076
0.939217
1.00164
0.929528
0.863609
0.855968
0.82312
0.784751
0.718319
0.766434
0.815115
0.814519
0.800641
0.776219
0.75675
0.758535
0.791807
0.740964
0.607382
0.76041
0.759493
0.780691
0.784727
0.784035
0.727676
0.694082
0.742715
0.762555
0.735735
0.718965
0.738971
0.770984
0.982406
0.748143
0.724326
0.72884
0.726342
0.723443
0.71729
0.702866
0.694534
0.719333
0.677853
0.614106
0.697172
0.670368
0.785345
0.738894
0.73617
0.659904
0.615798
0.714719
0.730238
0.692903
0.669316
0.671057
0.67408
0.977953
0.755916
0.643918
0.649557
0.65619
0.653134
0.649652
0.641577
0.633946
0.634922
0.709999
0.84857
0.703943
0.705812
0.97387
0.812398
0.736681
0.721756
0.705346
0.773602
0.778098
0.739417
0.724945
0.697504
0.726753
1.04803
0.858781
0.682774
0.66089
0.664299
0.662041
0.659103
0.65538
0.649561
0.632568
0.6677
0.866536
0.617595
0.642262
1.00629
1.01322
0.751847
0.660458
0.622886
0.822308
0.870552
0.762738
0.732055
0.682528
0.686067
1.11085
0.973382
0.674123
0.601303
0.608422
0.609555
0.613525
0.615121
0.618589
0.609745
0.6749
0.957621
0.632453
0.657094
1.07847
1.16843
0.838685
0.692183
0.657722
0.850936
0.918746
0.709252
0.744586
0.754912
0.993439
1.18134
1.10138
0.744857
0.597398
0.594192
0.599536
0.611033
0.616759
0.620001
0.608584
0.660128
0.923725
0.616075
0.611654
0.976576
1.18686
0.855108
0.69208
0.639927
0.848978
0.840232
0.680649
0.70705
0.872933
1.10837
1.24548
1.15978
0.82176
0.588715
0.570489
0.574725
0.589473
0.598045
0.60351
0.607889
0.675819
0.974527
0.741183
0.632659
0.89143
1.00296
0.671015
0.602573
0.694307
0.852092
0.572472
0.571925
0.596327
0.98922
1.31993
1.30611
1.21287
0.872752
0.594084
0.574054
0.578876
0.585364
0.593757
0.598905
0.627942
0.687336
0.94019
0.892202
0.662513
0.807427
0.720172
0.501981
0.569441
0.642881
0.745792
0.433896
0.496981
0.464113
0.744365
1.37296
1.40235
1.21908
0.935199
0.612055
0.574453
0.580328
0.585107
0.593784
0.604433
0.719149
0.72953
0.988643
1.1103
0.75719
0.857797
0.571299
0.521906
0.55122
0.678099
0.742158
0.471043
0.578947
0.481395
0.677304
1.55854
1.52809
1.29445
0.96218
0.603587
0.572348
0.585888
0.589309
0.601896
0.632881
0.87337
0.752688
1.01768
1.00774
0.751494
0.625858
0.533091
0.440193
0.521861
0.66742
0.584448
0.503211
0.554432
0.690152
0.73133
1.37779
1.46107
1.23576
0.95575
0.630263
0.603194
0.596438
0.604217
0.62139
0.736217
1.02115
0.808784
1.12722
0.67115
0.678467
0.497729
0.381462
0.292594
0.716812
0.678967
0.443404
0.32055
0.57051
0.5438
0.437819
0.734456
1.00405
1.15951
0.971036
0.675087
0.621449
0.62059
0.650518
0.710481
0.908404
1.11564
0.83941
0.962112
0.391802
0.693053
0.446848
0.289201
0.477497
0.839527
0.493288
0.329162
0.334152
0.651402
0.356065
0.275282
0.632408
0.957741
1.14216
0.907419
0.701019
0.643415
0.679457
0.782353
0.869125
0.996312
1.16006
0.840542
0.642788
0.349886
0.657515
0.386453
0.333544
0.677981
0.666361
0.328029
0.285288
0.477094
0.685422
0.291905
0.350666
0.825799
1.03573
1.09775
0.865211
0.759782
0.73802
0.832634
0.92684
0.963879
1.03524
1.19307
0.896172
0.537899
0.358711
0.649494
0.376648
0.380985
0.690953
0.559092
0.280481
0.3288
0.550924
0.639093
0.293403
0.491666
0.936916
1.09874
1.00471
0.845029
0.861482
0.911234
0.972198
1.02928
1.04737
1.06798
1.08785
0.973119
0.501054
0.394287
0.668809
0.358411
0.331094
0.733867
0.50051
0.239318
0.340975
0.577671
0.527222
0.321544
0.618875
1.03291
1.10716
1.04007
0.874967
0.973342
1.03463
1.04411
1.08112
1.09123
1.03071
0.591548
1.00407
0.434536
0.385561
0.547767
0.316813
0.266777
0.553585
0.456606
0.242445
0.34855
0.581056
0.443828
0.341316
0.737123
1.0573
1.14067
1.08389
0.920433
1.02306
1.06828
1.05192
1.12883
1.07605
0.913931
0.370756
1.02646
0.412486
0.342511
0.503611
0.299854
0.235687
0.430029
0.452829
0.25641
0.352239
0.552139
0.419244
0.357492
0.826519
1.09613
1.14011
1.14187
1.03921
1.01293
1.03215
1.0313
1.18363
1.11382
0.851591
0.351879
1.03886
0.465507
0.305147
0.499729
0.306719
0.234854
0.390719
0.429282
0.26224
0.347629
0.467594
0.407978
0.376882
0.969474
1.11814
1.18
1.15672
1.12785
1.03249
1.02287
1.09085
1.18324
1.1668
0.946482
0.363534
1.03726
0.505138
0.28584
0.528833
0.309766
0.236491
0.372365
0.418208
0.255792
0.335275
0.415208
0.394119
0.386173
1.04916
1.13979
1.1701
1.18374
1.2032
1.14092
1.04788
1.1585
1.16701
1.18899
1.01185
0.360477
1.04544
0.524893
0.284872
0.563305
0.307093
0.234801
0.361979
0.408838
0.243937
0.317908
0.379274
0.379423
0.394208
1.11186
1.14274
1.19977
1.20279
1.23337
1.20301
1.16371
1.18769
1.16066
1.19111
1.06406
0.339989
1.05364
0.527853
0.286133
0.56458
0.313827
0.221208
0.355867
0.415219
0.233453
0.286584
0.344366
0.356697
0.405204
1.13165
1.16523
1.18807
1.23492
1.24298
1.20932
1.16026
1.17841
1.12488
1.17885
0.967732
0.304914
1.08926
0.516733
0.2878
0.54849
0.330932
0.206059
0.358032
0.419834
0.231695
0.254294
0.310804
0.330934
0.422763
1.17535
1.16829
1.19212
1.23292
1.15201
0.968581
0.864014
0.960341
0.898682
0.971869
0.632604
0.284048
1.10485
0.488767
0.293648
0.546101
0.343847
0.197567
0.368776
0.421934
0.227048
0.220369
0.277056
0.299269
0.434429
1.19009
1.20298
1.14664
1.18989
0.792494
0.569853
0.498356
0.574334
0.545219
0.571627
0.421907
0.283539
0.987328
0.419342
0.310394
0.56191
0.353916
0.184873
0.379121
0.448141
0.227266
0.189712
0.246815
0.264851
0.428934
1.20546
1.22481
1.15575
1.13013
0.491477
0.40736
0.380265
0.412463
0.405321
0.413161
0.342689
0.286903
0.611875
0.32531
0.330314
0.575794
0.372514
0.166159
0.388908
0.548865
0.23482
0.16307
0.222534
0.232714
0.38453
1.11118
1.2807
1.19705
0.971038
0.383169
0.340415
0.334108
0.349913
0.346159
0.341247
0.317219
0.28567
0.401826
0.25462
0.339062
0.631283
0.378373
0.14327
0.383496
0.708255
0.24379
0.141252
0.20336
0.20779
0.31804
0.864111
1.3385
1.26048
0.658979
0.333261
0.312129
0.311278
0.320677
0.316817
0.311652
0.30494
0.278623
0.306013
0.198395
0.325036
0.832917
0.36405
0.124802
0.353746
0.794652
0.246005
0.128132
0.188979
0.193618
0.25734
0.594579
1.16117
1.02369
0.470362
0.306959
0.301607
0.300026
0.305773
0.30099
0.297852
0.296099
0.267929
0.261548
0.159781
0.314145
0.982574
0.330593
0.113012
0.31641
0.950803
0.238543
0.124397
0.179307
0.187046
0.219784
0.465661
0.709313
0.617598
0.407962
0.300816
0.301546
0.295104
0.297069
0.290893
0.289218
0.288159
0.25321
0.238619
0.139592
0.342486
1.18513
0.313614
0.109855
0.263483
0.818046
0.231424
0.124854
0.172219
0.181982
0.194466
0.386118
0.502857
0.462306
0.35888
0.306171
0.303097
0.292241
0.290039
0.282238
0.280669
0.278947
0.237242
0.225722
0.132894
0.346266
1.21215
0.306599
0.114149
0.204637
0.538792
0.208154
0.123712
0.166232
0.178433
0.174753
0.317139
0.386693
0.363167
0.32263
0.304909
0.298422
0.285488
0.280455
0.272284
0.270353
0.267505
0.220115
0.218462
0.136267
0.306179
0.830281
0.283313
0.117727
0.160694
0.429216
0.173584
0.117819
0.163
0.174982
0.170888
0.272517
0.319927
0.305925
0.298911
0.293026
0.285287
0.272761
0.267042
0.259089
0.256846
0.253219
0.201311
0.211927
0.139594
0.238797
0.561821
0.238114
0.113826
0.155628
0.346887
0.161083
0.107729
0.165218
0.172703
0.163789
0.244513
0.286428
0.276597
0.277761
0.273685
0.265787
0.255197
0.249675
0.242447
0.239972
0.236262
0.180826
0.200641
0.131822
0.176668
0.428929
0.184419
0.1015
0.143944
0.285208
0.147395
0.0949969
0.164525
0.172787
0.144643
0.220315
0.262582
0.254816
0.254933
0.249808
0.242373
0.234235
0.229014
0.222871
0.220219
0.216894
0.159328
0.178948
0.116434
0.159565
0.314297
0.173831
0.0864196
0.127819
0.248944
0.119251
0.0823828
0.15294
0.172803
0.121001
0.199344
0.238072
0.232461
0.229013
0.223835
0.216968
0.211256
0.206586
0.201877
0.19943
0.196858
0.141243
0.149709
0.0984319
0.11962
0.24528
0.141943
0.0724877
0.110217
0.225107
0.0913076
0.0707978
0.129457
0.16143
0.0983953
0.188825
0.211249
0.208225
0.203102
0.199888
0.195185
0.192373
0.189551
0.187364
0.186002
0.184549
0.127887
0.123647
0.0803174
0.0915557
0.21441
0.108527
0.061185
0.0945438
0.203423
0.0744646
0.0609431
0.106786
0.139189
0.0800442
0.179954
0.193421
0.193734
0.190975
0.190314
0.187857
0.186844
0.184989
0.183792
0.182585
0.181345
0.108589
0.0995938
0.0630649
0.07335
0.203472
0.0867562
0.0522101
0.0822111
0.197758
0.0595103
0.0552697
0.0849358
0.113762
0.0659317
0.151454
0.184438
0.18665
0.181715
0.181361
0.177029
0.17547
0.172058
0.169768
0.167639
0.165995
0.0799903
0.0646866
0.0490268
0.061241
0.191261
0.0649516
0.0443636
0.0661091
0.181891
0.0454558
0.0473992
0.0668147
0.0902547
0.0551327
0.114206
0.154581
0.158903
0.151535
0.152934
0.147067
0.146249
0.142036
0.139989
0.137627
0.136078
0.051277
0.0344627
0.0327166
0.0513181
0.14611
0.0508622
0.0255507
0.0546098
0.132618
0.0281356
0.0286475
0.0557225
0.0735309
0.0424931
0.0859431
0.115923
0.120979
0.115059
0.117096
0.112618
0.112455
0.109226
0.107761
0.106072
0.104557
0.0293818
0.0166231
0.0131802
0.0364004
0.103123
0.0348467
0.00532161
0.0438085
0.0925939
0.00592634
0.00735628
0.0426274
0.0606841
0.0231774
0.0666705
0.0853254
0.088179
0.0858735
0.0867416
0.0848231
0.0840919
0.0828699
0.0817009
0.0809771
0.0795632
0.0154184
0.00746969
0.0022604
0.0143479
0.075137
0.0101387
0.000486965
0.0224149
0.0656636
0.000342938
0.000797848
0.0210997
0.0449769
0.00598909
0.0492361
0.0645391
0.0672309
0.065449
0.0672489
0.0651706
0.0658151
0.0642743
0.0642307
0.0633228
0.0618226
0.007509
0.00305871
0.000254491
0.00214475
0.052237
0.000914043
9.26479e-05
0.0043137
0.0433261
7.61937e-05
0.000118156
0.00383283
0.0194177
0.000760856
0.0225669
0.0466633
0.0498221
0.0483618
0.0502751
0.0483959
0.0493147
0.0477127
0.0474874
0.0467591
0.0438217
0.00323647
0.00096931
9.23686e-05
0.000245537
0.0221589
0.0001012
5.7091e-05
0.000399904
0.0118186
6.03851e-05
6.01384e-05
0.000337471
0.00263005
0.000118228
0.00317949
0.018476
0.021133
0.0209265
0.0225892
0.0213187
0.0218939
0.0205976
0.0201382
0.0195247
0.0158624
0.00107946
0.000387912
7.47206e-05
7.55372e-05
0.00246748
6.167e-05
5.49984e-05
8.55516e-05
0.000922692
5.85393e-05
5.56402e-05
8.09166e-05
0.000221708
6.10846e-05
0.000260446
0.00211163
0.00260282
0.00265891
0.00300583
0.00278814
0.00288943
0.00265184
0.00253374
0.00243409
0.00175346
0.000419898
0.000304427
7.28836e-05
5.98987e-05
0.000201815
5.9443e-05
5.48266e-05
5.97484e-05
0.000105644
5.79282e-05
5.52506e-05
5.85991e-05
6.56292e-05
5.70768e-05
7.31022e-05
0.000192255
0.000222001
0.000228286
0.000251232
0.000238558
0.000244908
0.000230029
0.000221466
0.000215684
0.000180627
0.000314981
0.000288433
7.18389e-05
5.84109e-05
6.12505e-05
5.8673e-05
5.47532e-05
5.78543e-05
5.67836e-05
5.7411e-05
5.5094e-05
5.70168e-05
5.50119e-05
5.65405e-05
5.9843e-05
6.35885e-05
6.30727e-05
6.37238e-05
6.50282e-05
6.44862e-05
6.47865e-05
6.40247e-05
6.34413e-05
6.35454e-05
7.43264e-05
0.000294847
0.000285853
7.13563e-05
5.77593e-05
5.45291e-05
5.7991e-05
5.46722e-05
5.73011e-05
5.46231e-05
5.69343e-05
5.49598e-05
5.65453e-05
5.44913e-05
5.6156e-05
5.84975e-05
5.64342e-05
5.45741e-05
5.4602e-05
5.46595e-05
5.46389e-05
5.46494e-05
5.4619e-05
5.45987e-05
5.49455e-05
6.81526e-05
0.000291565
0.000283948
7.1256e-05
5.72205e-05
5.42178e-05
5.7369e-05
5.45967e-05
5.68098e-05
5.44579e-05
5.6499e-05
5.48412e-05
5.61611e-05
5.44035e-05
5.57995e-05
5.77439e-05
5.58208e-05
5.41873e-05
5.41856e-05
5.41858e-05
5.41822e-05
5.41821e-05
5.418e-05
5.41875e-05
5.4532e-05
6.7531e-05
0.000289655
0.000281617
7.10558e-05
5.67146e-05
5.41848e-05
5.68251e-05
5.45445e-05
5.6367e-05
5.43844e-05
5.60918e-05
5.47433e-05
5.58385e-05
5.43431e-05
5.54995e-05
5.71596e-05
5.55353e-05
5.41682e-05
5.41639e-05
5.41625e-05
5.41592e-05
5.41563e-05
5.4152e-05
5.41599e-05
5.44993e-05
6.73256e-05
0.000287731
0.000279164
7.04817e-05
5.623e-05
5.41624e-05
5.63101e-05
5.44879e-05
5.59621e-05
5.43171e-05
5.57074e-05
5.46524e-05
5.55287e-05
5.42852e-05
5.52381e-05
5.66222e-05
5.52765e-05
5.41643e-05
5.41576e-05
5.41577e-05
5.4154e-05
5.41501e-05
5.41476e-05
5.41532e-05
5.44773e-05
6.71684e-05
0.000285844
0.000276993
7.00335e-05
5.57734e-05
5.41477e-05
5.58012e-05
5.44109e-05
5.55658e-05
5.42567e-05
5.53436e-05
5.45461e-05
5.52346e-05
5.42304e-05
5.49844e-05
5.61066e-05
5.50325e-05
5.41632e-05
5.41571e-05
5.41536e-05
5.4148e-05
5.41468e-05
5.41456e-05
5.41498e-05
5.44563e-05
6.68078e-05
0.000284097
0.000274725
6.99727e-05
5.53504e-05
5.41432e-05
5.53451e-05
5.4356e-05
5.51975e-05
5.42133e-05
5.50237e-05
5.44577e-05
5.49663e-05
5.4186e-05
5.47595e-05
5.56212e-05
5.48271e-05
5.41637e-05
5.4157e-05
5.41482e-05
5.4145e-05
5.41427e-05
5.41414e-05
5.41456e-05
5.44356e-05
6.6409e-05
0.00028238
0.000272056
7.00323e-05
5.4997e-05
5.41466e-05
5.49856e-05
5.43391e-05
5.48941e-05
5.41878e-05
5.47633e-05
5.44143e-05
5.47375e-05
5.41582e-05
5.45949e-05
5.52195e-05
5.46706e-05
5.4166e-05
5.41555e-05
5.41459e-05
5.41435e-05
5.41372e-05
5.41341e-05
5.41388e-05
5.44135e-05
6.62012e-05
0.000280714
0.000268954
7.00183e-05
5.47218e-05
5.41544e-05
5.47036e-05
5.43321e-05
5.4647e-05
5.41752e-05
5.45582e-05
5.43923e-05
5.45619e-05
5.41415e-05
5.44716e-05
5.49199e-05
5.45642e-05
5.41703e-05
5.41515e-05
5.41447e-05
5.41401e-05
5.41337e-05
5.41307e-05
5.41339e-05
5.43878e-05
6.58647e-05
0.000279173
0.000265627
6.97132e-05
5.45079e-05
5.41532e-05
5.44804e-05
5.43155e-05
5.4447e-05
5.4158e-05
5.43906e-05
5.43546e-05
5.44229e-05
5.41267e-05
5.43621e-05
5.46913e-05
5.44689e-05
5.41718e-05
5.41481e-05
5.41411e-05
5.41341e-05
5.41307e-05
5.41271e-05
5.41289e-05
5.43609e-05
6.53825e-05
0.000277629
0.000262828
6.8469e-05
5.43443e-05
5.41401e-05
5.43148e-05
5.42685e-05
5.43e-05
5.41284e-05
5.42642e-05
5.42924e-05
5.43087e-05
5.41157e-05
5.42699e-05
5.4503e-05
5.4368e-05
5.41694e-05
5.41439e-05
5.41365e-05
5.41297e-05
5.41251e-05
5.41203e-05
5.41219e-05
5.43375e-05
6.50197e-05
0.000276279
0.00026088
6.53023e-05
5.42327e-05
5.41103e-05
5.42075e-05
5.42034e-05
5.42047e-05
5.41052e-05
5.4183e-05
5.42244e-05
5.42251e-05
5.41089e-05
5.42003e-05
5.43531e-05
5.42795e-05
5.41593e-05
5.41353e-05
5.41308e-05
5.41242e-05
5.41178e-05
5.41144e-05
5.41156e-05
5.43133e-05
6.46843e-05
0.000274962
0.000259681
6.2413e-05
5.41668e-05
5.40926e-05
5.41471e-05
5.41559e-05
5.41499e-05
5.40933e-05
5.41361e-05
5.41702e-05
5.41718e-05
5.4105e-05
5.41518e-05
5.42481e-05
5.42119e-05
5.41404e-05
5.41268e-05
5.41217e-05
5.41157e-05
5.4112e-05
5.41104e-05
5.41113e-05
5.42857e-05
6.42079e-05
0.000273751
0.000258739
6.06102e-05
5.41321e-05
5.40861e-05
5.41154e-05
5.41256e-05
5.41198e-05
5.40896e-05
5.41118e-05
5.41357e-05
5.41375e-05
5.41025e-05
5.41244e-05
5.41801e-05
5.41629e-05
5.41247e-05
5.41183e-05
5.41131e-05
5.4109e-05
5.41069e-05
5.41054e-05
5.41063e-05
5.42619e-05
6.3763e-05
0.000272621
0.000257959
5.97909e-05
5.41153e-05
5.40851e-05
5.41002e-05
5.41074e-05
5.41047e-05
5.40897e-05
5.41006e-05
5.41152e-05
5.41165e-05
5.41001e-05
5.41109e-05
5.41388e-05
5.41311e-05
5.41134e-05
5.41092e-05
5.41062e-05
5.41041e-05
5.41016e-05
5.41001e-05
5.41017e-05
5.42406e-05
6.33501e-05
0.000271638
0.000257764
5.94533e-05
5.41073e-05
5.40857e-05
5.40935e-05
5.40969e-05
5.40969e-05
5.409e-05
5.40948e-05
5.41027e-05
5.41043e-05
5.40969e-05
5.41021e-05
5.41156e-05
5.41129e-05
5.41048e-05
5.41025e-05
5.41008e-05
5.4099e-05
5.40971e-05
5.40967e-05
5.40983e-05
5.42206e-05
6.29374e-05
0.000270776
0.000257877
5.93306e-05
5.41036e-05
5.40863e-05
5.40901e-05
5.40913e-05
5.40926e-05
5.40899e-05
5.40916e-05
5.40954e-05
5.40972e-05
5.40943e-05
5.4096e-05
5.41032e-05
5.41022e-05
5.40985e-05
5.40975e-05
5.40958e-05
5.40948e-05
5.40943e-05
5.40938e-05
5.4095e-05
5.42017e-05
6.25584e-05
0.000269956
0.000257973
5.9292e-05
5.41019e-05
5.40865e-05
5.40881e-05
5.40889e-05
5.40902e-05
5.40892e-05
5.40899e-05
5.40917e-05
5.40929e-05
5.40921e-05
5.40924e-05
5.40958e-05
5.40952e-05
5.4094e-05
5.40936e-05
5.4092e-05
5.4092e-05
5.40919e-05
5.4091e-05
5.40919e-05
5.41862e-05
6.22491e-05
0.000269241
0.000258236
5.92861e-05
5.41012e-05
5.40866e-05
5.4087e-05
5.40876e-05
5.40886e-05
5.40883e-05
5.40887e-05
5.40896e-05
5.40901e-05
5.409e-05
5.40902e-05
5.40913e-05
5.4091e-05
5.4091e-05
5.40909e-05
5.40899e-05
5.40903e-05
5.40895e-05
5.40887e-05
5.40896e-05
5.41732e-05
6.19855e-05
0.000268608
0.00025864
5.92882e-05
5.41002e-05
5.40863e-05
5.40863e-05
5.40861e-05
5.40868e-05
5.40869e-05
5.40872e-05
5.40877e-05
5.40877e-05
5.40879e-05
5.40884e-05
5.40884e-05
5.4089e-05
5.40888e-05
5.40886e-05
5.40886e-05
5.40894e-05
5.4088e-05
5.40875e-05
5.40885e-05
5.41607e-05
6.16354e-05
0.000268053
0.000259216
5.92982e-05
5.40995e-05
5.40852e-05
5.4086e-05
5.40851e-05
5.40856e-05
5.40858e-05
5.40862e-05
5.40862e-05
5.40863e-05
5.40864e-05
5.40868e-05
5.40867e-05
5.40876e-05
5.40873e-05
5.40869e-05
5.40872e-05
5.40881e-05
5.4087e-05
5.40865e-05
5.40873e-05
5.41508e-05
6.135e-05
0.000267548
0.000259772
5.93184e-05
5.40994e-05
5.40848e-05
5.40857e-05
5.4085e-05
5.40852e-05
5.40854e-05
5.40861e-05
5.40855e-05
5.40857e-05
5.40858e-05
5.40858e-05
5.40859e-05
5.40867e-05
5.40866e-05
5.40863e-05
5.40862e-05
5.40868e-05
5.40866e-05
5.40859e-05
5.40864e-05
5.41439e-05
6.11674e-05
0.000267085
0.000259698
5.93374e-05
5.40994e-05
5.40847e-05
5.40853e-05
5.4085e-05
5.4085e-05
5.40851e-05
5.40859e-05
5.40852e-05
5.40854e-05
5.40856e-05
5.40854e-05
5.40857e-05
5.40861e-05
5.40863e-05
5.40859e-05
5.40857e-05
5.40859e-05
5.40863e-05
5.40856e-05
5.40859e-05
5.41367e-05
6.08963e-05
0.000266772
0.000261498
5.93559e-05
5.40993e-05
5.40845e-05
5.40848e-05
5.40847e-05
5.40847e-05
5.40848e-05
5.40853e-05
5.40849e-05
5.40851e-05
5.40853e-05
5.40852e-05
5.40853e-05
5.40857e-05
5.4086e-05
5.40856e-05
5.40856e-05
5.40854e-05
5.4086e-05
5.40854e-05
5.40858e-05
5.41313e-05
6.07818e-05
0.000266421
0.000259365
5.93676e-05
5.40995e-05
5.40846e-05
5.40847e-05
5.40847e-05
5.40848e-05
5.40849e-05
5.40851e-05
5.4085e-05
5.40851e-05
5.40853e-05
5.40853e-05
5.40852e-05
5.40857e-05
5.40857e-05
5.40854e-05
5.40856e-05
5.40853e-05
5.40855e-05
5.40853e-05
5.40856e-05
5.41263e-05
6.05718e-05
0.000265921
0.00026253
5.9383e-05
5.40997e-05
5.40847e-05
5.40848e-05
5.40848e-05
5.40848e-05
5.40849e-05
5.4085e-05
5.40851e-05
5.40851e-05
5.40851e-05
5.40853e-05
5.40851e-05
5.40855e-05
5.40853e-05
5.40851e-05
5.40854e-05
5.40852e-05
5.4085e-05
5.40852e-05
5.40853e-05
5.41224e-05
6.03903e-05
0.000266595
0.000258797
5.93908e-05
5.40999e-05
5.40848e-05
5.40849e-05
5.40849e-05
5.4085e-05
5.40849e-05
5.40851e-05
5.40852e-05
5.40852e-05
5.40852e-05
5.40853e-05
5.40852e-05
5.40852e-05
5.40851e-05
5.40851e-05
5.40852e-05
5.40852e-05
5.40849e-05
5.40851e-05
5.40853e-05
5.41184e-05
6.03556e-05
0.00026444
0.000262574
5.94176e-05
5.41047e-05
5.40896e-05
5.40897e-05
5.40897e-05
5.40897e-05
5.40896e-05
5.40898e-05
5.40899e-05
5.40899e-05
5.40897e-05
5.40899e-05
5.40898e-05
5.40896e-05
5.40896e-05
5.40896e-05
5.40897e-05
5.40897e-05
5.40893e-05
5.40895e-05
5.40896e-05
5.41203e-05
6.0233e-05
0.000266318
)
;

boundaryField
{
    inlet
    {
        type            fixedValue;
        value           uniform 0.00015;
    }
    outlet
    {
        type            inletOutlet;
        phi             phi.air;
        inletValue      uniform 0.00015;
        value           nonuniform List<scalar> 
25
(
0.000262574
5.94176e-05
5.41047e-05
5.40896e-05
5.40897e-05
5.40897e-05
5.40897e-05
5.40896e-05
5.40898e-05
5.40899e-05
5.40899e-05
5.40897e-05
5.40899e-05
5.40898e-05
5.40896e-05
5.40896e-05
5.40896e-05
5.40897e-05
5.40897e-05
5.40893e-05
5.40895e-05
5.40896e-05
5.41203e-05
6.0233e-05
0.000266318
)
;
    }
    walls
    {
        Cmu             0.09;
        kappa           0.41;
        E               9.8;
        type            epsilonWallFunction;
        value           nonuniform List<scalar> 
150
(
0.250297
0.370812
0.300062
0.14676
0.122769
0.0950497
0.0985075
0.103366
0.111084
0.1421
0.16928
0.164962
0.151274
0.17045
0.216275
0.343315
0.468811
0.515137
0.55667
0.612244
0.677651
0.746645
0.788137
0.819585
0.823539
0.72202
0.440462
0.290194
0.219451
0.184764
0.16593
0.15809
0.156825
0.156171
0.150667
0.135965
0.114724
0.0991883
0.0861503
0.0574451
0.00760516
0.00485081
0.00315777
0.00208988
0.0012323
0.00087172
0.000804647
0.000788049
0.000784927
0.000782377
0.000779123
0.000775556
0.000772257
0.000769193
0.000765064
0.000759841
0.000754282
0.000749903
0.000747151
0.000745637
0.000743963
0.000741796
0.000740841
0.000741229
0.000742046
0.000743084
0.000744509
0.000746678
0.000748606
0.000750821
0.000752436
0.000754584
0.000755665
0.00075749
0.000759097
0.250693
0.413668
0.313551
0.228495
0.197809
0.181849
0.184241
0.199021
0.249324
0.364902
0.512827
0.64036
0.724191
0.774798
0.81098
0.723258
0.298641
0.0916703
0.0485708
0.0394205
0.0582795
0.0753926
0.0896346
0.103466
0.125237
0.147523
0.161696
0.166238
0.164447
0.158848
0.151419
0.143003
0.133261
0.122076
0.110042
0.101851
0.099189
0.0897425
0.0681274
0.0444072
0.00680373
0.00465809
0.0032147
0.00217153
0.00129943
0.000900117
0.00081908
0.000798543
0.000794582
0.000792073
0.000789465
0.00078689
0.00078456
0.000782267
0.000780042
0.000778032
0.000776005
0.000774311
0.000772673
0.000771228
0.000769912
0.000768863
0.000768036
0.000767295
0.000766728
0.000766319
0.000766067
0.000765881
0.00076581
0.000765974
0.000766052
0.000766315
0.000766575
0.0007672
0.000767086
)
;
    }
    frontAndBack
    {
        type            empty;
    }
}


// ************************************************************************* //
