/*--------------------------------*- C++ -*----------------------------------*\
  =========                 |
  \\      /  F ield         | OpenFOAM: The Open Source CFD Toolbox
   \\    /   O peration     | Website:  https://openfoam.org
    \\  /    A nd           | Version:  dev
     \\/     M anipulation  |
\*---------------------------------------------------------------------------*/
FoamFile
{
    version     2.0;
    format      ascii;
    class       volScalarField;
    location    "1";
    object      k.air;
}
// * * * * * * * * * * * * * * * * * * * * * * * * * * * * * * * * * * * * * //

dimensions      [0 2 -2 0 0 0 0];

internalField   nonuniform List<scalar> 
1875
(
0.0213641
0.000268142
0.000126859
0.000128739
0.000126731
0.000130309
0.000127058
0.000129508
0.000126575
0.000130439
0.000128331
0.000128678
0.000127759
0.000130145
0.000129873
0.000129531
0.000128997
0.000129546
0.000129434
0.000129579
0.000129292
0.00012933
0.000129214
0.000226962
0.0213793
0.0277458
0.000911329
0.000159428
0.000129945
0.000159015
0.000179937
0.000167486
0.000135922
0.000142262
0.000181794
0.000182758
0.00015245
0.000149847
0.000162387
0.000156755
0.000138139
0.000130511
0.000131331
0.000131468
0.000130711
0.000129871
0.000128549
0.000128651
0.000819182
0.029838
0.0241171
0.00116881
0.000328039
0.000207141
0.000348467
0.000482503
0.000430988
0.00024195
0.000257426
0.000445036
0.000531102
0.000389482
0.000300952
0.000328992
0.000328657
0.00029663
0.000220438
0.000204379
0.000200381
0.000199371
0.000199726
0.000199441
0.000201484
0.00151892
0.0248401
0.0150148
0.0015078
0.000796692
0.000348451
0.000984336
0.00124343
0.00118108
0.000489609
0.000495113
0.00103939
0.00122372
0.0011151
0.000780928
0.000741531
0.000758365
0.000785048
0.000499081
0.000346183
0.00032305
0.00032383
0.000328856
0.000329661
0.000334028
0.00175906
0.020131
0.0133287
0.00311571
0.00113288
0.000737398
0.00143422
0.00109055
0.00119492
0.00097587
0.00104776
0.00105689
0.000916186
0.00105166
0.00113351
0.00114233
0.00121615
0.00133984
0.00110577
0.000732433
0.000645908
0.000645341
0.000663461
0.000667832
0.000677698
0.00240526
0.0182769
0.011225
0.0035782
0.00104654
0.000912332
0.00102552
0.00052373
0.000578393
0.000949123
0.0010697
0.00061476
0.000473155
0.000619729
0.000911857
0.00101729
0.00112836
0.00134963
0.00119877
0.000920127
0.000853157
0.000861967
0.00089785
0.000922394
0.000943793
0.00275709
0.0172709
0.0114786
0.00396501
0.000708693
0.000909273
0.000502438
0.000414999
0.000396822
0.00087289
0.000957537
0.000488833
0.0004167
0.000519355
0.00068284
0.000728093
0.000779558
0.000991997
0.00109291
0.00103604
0.00104027
0.0010745
0.00110245
0.00111778
0.0011413
0.00358098
0.017414
0.0118241
0.0036335
0.00047203
0.000874735
0.000382539
0.000443711
0.000384649
0.000755114
0.000628555
0.000454899
0.000436772
0.000469878
0.000457847
0.000468768
0.000465378
0.000558653
0.000852829
0.00100454
0.00104475
0.0011045
0.00111772
0.00112304
0.00114084
0.00418125
0.0183034
0.0123837
0.00357925
0.000371
0.000838645
0.000385748
0.000498015
0.000424034
0.000603932
0.00047282
0.000454937
0.000403929
0.000447266
0.000387504
0.000422087
0.000413018
0.000437476
0.000603966
0.000929127
0.00102274
0.00107914
0.00106361
0.00102589
0.000950604
0.00542265
0.0211984
0.0145651
0.00380422
0.000470044
0.00063152
0.000402137
0.000382376
0.000365663
0.000496137
0.000395023
0.000376129
0.000318086
0.000398108
0.000357684
0.000462655
0.000428419
0.000410897
0.000465394
0.000763135
0.000898586
0.000860653
0.00070458
0.000599865
0.000762111
0.00750378
0.0272712
0.0163653
0.00452065
0.00182953
0.000539584
0.000350029
0.000338552
0.000355004
0.000447076
0.000348533
0.000372497
0.000330486
0.000376864
0.000377876
0.000484565
0.000476738
0.000386966
0.000397862
0.000517154
0.000543609
0.000464373
0.000397977
0.000369668
0.000899502
0.0110762
0.0342408
0.0160704
0.00585394
0.00285337
0.000641177
0.000313129
0.000385474
0.000357911
0.000368131
0.000318436
0.000383341
0.000336504
0.000330848
0.000435257
0.00041232
0.00034591
0.000315802
0.000356643
0.000388755
0.000367811
0.000333965
0.000316631
0.000381205
0.00187688
0.0185349
0.0398334
0.0151464
0.0135475
0.0026489
0.000572503
0.000323916
0.000381641
0.000222787
0.000354359
0.000419946
0.00038694
0.000249095
0.000304039
0.000405086
0.000245786
0.000260779
0.000294996
0.000335406
0.000328807
0.00030948
0.000300596
0.000307171
0.000546625
0.00454801
0.0278507
0.0433744
0.016415
0.0198462
0.00148368
0.00042973
0.000369636
0.000298575
0.000218436
0.000355199
0.00049606
0.000319431
0.000209193
0.00029962
0.000328085
0.000190138
0.000263699
0.00029557
0.000311172
0.000302491
0.000296708
0.000295213
0.000321874
0.00112272
0.0102184
0.0353452
0.0454038
0.0192663
0.0153416
0.00150707
0.000346696
0.000372973
0.000308238
0.000244079
0.000324342
0.00040658
0.000287836
0.000242975
0.000278926
0.000290035
0.000202586
0.000290606
0.000303065
0.000303571
0.000296394
0.000295517
0.000298138
0.000342785
0.0016897
0.0149417
0.0391992
0.0468328
0.026257
0.0144964
0.00260197
0.000329923
0.000364313
0.000372714
0.000271474
0.000297615
0.000356165
0.00031583
0.000268805
0.000277888
0.000291336
0.000230329
0.00029314
0.000304283
0.000300024
0.000294801
0.000298132
0.000304357
0.00034147
0.00174025
0.0172659
0.0386681
0.0434343
0.0324435
0.0194196
0.00434049
0.000304539
0.000357367
0.000378353
0.000308777
0.0002786
0.000333826
0.000329099
0.000291396
0.000281982
0.0003006
0.00025083
0.000298483
0.000304635
0.00030939
0.000298284
0.000302996
0.000307852
0.000321428
0.00107202
0.0155293
0.0297698
0.0241153
0.0345572
0.0219123
0.00582278
0.000267159
0.000316335
0.000369467
0.000320277
0.000268246
0.000340088
0.00034489
0.000307503
0.000288093
0.000310994
0.000269597
0.000298986
0.000307313
0.000314422
0.000303563
0.000306227
0.000308838
0.000310524
0.000387941
0.00607978
0.0140895
0.0109425
0.0363755
0.023169
0.00657601
0.00028509
0.000300063
0.00035049
0.000313274
0.000272311
0.000357167
0.000359556
0.000318836
0.000295122
0.00031357
0.000280746
0.000299546
0.000303883
0.000311982
0.000312534
0.00030642
0.000306388
0.000308694
0.00031685
0.000706292
0.00475494
0.00713643
0.0387189
0.0258291
0.00696292
0.000352507
0.000300372
0.00036732
0.000300113
0.000278984
0.000366717
0.00036646
0.000320853
0.000302904
0.000315346
0.000292809
0.00029779
0.000302548
0.000304451
0.000308324
0.000306476
0.00030389
0.000307571
0.000309809
0.000321897
0.0019855
0.00619253
0.0414198
0.0270182
0.00667025
0.000416958
0.000300892
0.000375923
0.000296603
0.000284111
0.00036869
0.000370297
0.000321852
0.000311641
0.000307903
0.00029518
0.000297965
0.000297149
0.000302587
0.000306189
0.000306251
0.000303518
0.000306855
0.000307444
0.000307424
0.00155197
0.00805153
0.0442152
0.0270066
0.00645821
0.000460515
0.000299417
0.000381941
0.000299591
0.000284363
0.000366542
0.000371634
0.000321054
0.000314918
0.000297479
0.000294306
0.000296833
0.000297082
0.000300206
0.000303528
0.000303574
0.000303313
0.000304274
0.000305362
0.000305165
0.00158986
0.00957308
0.0458729
0.0260189
0.00574783
0.000473636
0.000298023
0.000383376
0.000302538
0.000283111
0.000362487
0.000368619
0.00031497
0.000314479
0.000292971
0.000289819
0.000293552
0.000290316
0.000295762
0.00029816
0.000298015
0.000296798
0.000297739
0.000298815
0.000299196
0.0016615
0.0107537
0.0471092
0.0241924
0.00485796
0.000450613
0.000297831
0.000378646
0.000298047
0.000275199
0.000363026
0.000359854
0.000304682
0.000311756
0.000295379
0.000285522
0.000285419
0.00028416
0.000287666
0.000292045
0.000288222
0.000285563
0.00028879
0.000289647
0.000291129
0.00164468
0.0118209
0.0473129
0.0213097
0.00365161
0.000385344
0.000297776
0.000376914
0.000288077
0.000265233
0.000367993
0.000353179
0.000291461
0.000307274
0.000304673
0.000281358
0.000283041
0.00027818
0.000282284
0.000280883
0.000272093
0.000269051
0.000274256
0.00027463
0.000276542
0.00166069
0.0134198
0.0435602
0.016674
0.00233785
0.000316909
0.000298961
0.000366889
0.000274908
0.000259135
0.000374623
0.000344167
0.000274959
0.00030039
0.000316373
0.000276313
0.000278834
0.000274907
0.00027463
0.000262283
0.000259137
0.00025858
0.000262244
0.000263161
0.000264852
0.00174945
0.0149825
0.031467
0.0110087
0.00118951
0.000266518
0.000298571
0.000347972
0.000260239
0.000251804
0.000378116
0.000335436
0.000258614
0.000289122
0.000327284
0.000269509
0.000273218
0.000266902
0.000263111
0.000247606
0.000247514
0.000248872
0.000251648
0.000252484
0.000252836
0.00179773
0.0159469
0.0237257
0.00672564
0.000533587
0.000245313
0.000286927
0.000325871
0.000242499
0.000243403
0.000377575
0.000326402
0.000242037
0.000274932
0.000322887
0.000263857
0.000265767
0.000258608
0.000249136
0.000237539
0.000239236
0.00024106
0.000243426
0.000244278
0.000244722
0.0017483
0.0162585
0.0196369
0.0040413
0.000290409
0.00023702
0.000262846
0.000312558
0.000222041
0.000234486
0.000375243
0.000329278
0.000227336
0.000261134
0.000310764
0.000257765
0.000259274
0.000249978
0.000240898
0.000232674
0.000235238
0.000236748
0.000238822
0.000239708
0.000240544
0.00161947
0.0161486
0.0174717
0.00269596
0.000236646
0.000230229
0.000240164
0.000312871
0.000207912
0.0002316
0.000375191
0.000352544
0.000216784
0.000247485
0.000296677
0.000255348
0.000254626
0.000243779
0.000239012
0.000231182
0.000233753
0.00023433
0.000235889
0.000236622
0.000237718
0.00147312
0.0157856
0.0162438
0.00226772
0.000231027
0.000225067
0.000228534
0.000332095
0.000198328
0.000223751
0.000383428
0.000386163
0.000211449
0.000233045
0.00028087
0.000249928
0.000249096
0.000237345
0.000233581
0.000229652
0.00023099
0.000230889
0.000231802
0.000232176
0.000233309
0.00132006
0.0152932
0.0157096
0.00225432
0.000227554
0.000217527
0.000225009
0.000369118
0.000187659
0.00021629
0.00038192
0.000406027
0.000211456
0.000220732
0.000267621
0.000242997
0.000238481
0.000226133
0.000225747
0.000224597
0.000225626
0.000225242
0.000225896
0.000226144
0.000227289
0.00116412
0.0147259
0.0156204
0.00253297
0.000219316
0.000210854
0.000221296
0.000403088
0.000180315
0.000210275
0.000363443
0.000401398
0.000220449
0.00021347
0.00027774
0.000239522
0.000229179
0.000216547
0.000219243
0.000218961
0.000220183
0.000219574
0.000220295
0.000220511
0.000221778
0.00101034
0.0140556
0.0155872
0.0028905
0.000204633
0.000207632
0.000211465
0.00041476
0.000208267
0.000204848
0.000392094
0.000382646
0.000242727
0.000215849
0.000285248
0.00023772
0.000224628
0.0002113
0.000214987
0.000214503
0.000215924
0.000215243
0.000216143
0.000216328
0.000217749
0.000865348
0.0132656
0.0152445
0.00298037
0.000194826
0.000204275
0.00019899
0.000410876
0.00021982
0.000200218
0.000417958
0.000361792
0.000269038
0.000228232
0.000275106
0.000235507
0.000221568
0.000207359
0.000211111
0.000209932
0.000211649
0.000210969
0.000211955
0.000212045
0.000213589
0.000730405
0.0123824
0.0142696
0.00279665
0.000228379
0.000196453
0.000230767
0.000404638
0.000218381
0.000195468
0.000384111
0.000346286
0.000284483
0.000246272
0.000257321
0.000235739
0.000216435
0.000201943
0.00020527
0.000203541
0.000205643
0.000205136
0.000206378
0.000206699
0.000208634
0.000609793
0.0117468
0.0127608
0.00247373
0.000216294
0.000187766
0.000228577
0.000404261
0.000215829
0.000190483
0.000342218
0.00033867
0.000285774
0.000256236
0.000242021
0.0002537
0.000210138
0.000196163
0.000200056
0.000198848
0.000202996
0.000203874
0.000206912
0.000209064
0.000212547
0.00053016
0.0115398
0.01156
0.00208428
0.000207328
0.000188347
0.000212049
0.000417601
0.000217359
0.000190826
0.000327054
0.000344767
0.00028492
0.000255156
0.000235889
0.000283877
0.000218325
0.000203721
0.000212318
0.000211756
0.000219292
0.000221122
0.000225929
0.000228801
0.000233313
0.000495531
0.010835
0.0105623
0.00171884
0.000211906
0.000204442
0.000206002
0.000452831
0.000224907
0.000211309
0.000335454
0.000375551
0.000286915
0.000250396
0.000244151
0.000288136
0.000245331
0.000227646
0.000235419
0.000233033
0.000239032
0.000238975
0.000242374
0.000243258
0.000246874
0.000450159
0.00905867
0.00812468
0.00147152
0.000232851
0.000223436
0.000213726
0.000507235
0.000237166
0.000231342
0.000375307
0.000414538
0.000302692
0.000248814
0.000272311
0.000272868
0.000248392
0.000232363
0.000235835
0.000233545
0.000236635
0.000235546
0.000237675
0.000237577
0.000240559
0.000387118
0.00683428
0.00540713
0.00125772
0.000272528
0.000216308
0.000250594
0.000465161
0.000271637
0.00021822
0.000392568
0.000401143
0.000352195
0.000261124
0.000310146
0.000266562
0.000232858
0.00021885
0.000222214
0.000220127
0.000223179
0.000221794
0.000224558
0.00022451
0.000227852
0.000335661
0.00482478
0.00344859
0.00087693
0.000303987
0.000201954
0.000288629
0.00025029
0.000327763
0.000207181
0.000226391
0.000248071
0.000417066
0.000298428
0.000295944
0.000287732
0.000225133
0.00020973
0.000215807
0.000212216
0.000217377
0.00021511
0.00021996
0.000220243
0.000224722
0.000314425
0.00330265
0.00223877
0.000386773
0.000253868
0.000211006
0.000216357
0.000104475
0.000322246
0.000226336
9.38275e-05
0.000110699
0.000393433
0.000356541
0.000186434
0.000344081
0.000245195
0.000227412
0.000234324
0.000230146
0.000236212
0.000235008
0.000240604
0.000242494
0.0002478
0.000338607
0.002276
0.0014838
0.000154153
0.000135413
0.000258147
0.000106554
7.24657e-05
0.000188255
0.000283384
7.10021e-05
7.44619e-05
0.000215585
0.000327712
9.96361e-05
0.00033385
0.000299175
0.000280006
0.000286887
0.000281125
0.000288229
0.000286574
0.000292832
0.000294203
0.000300631
0.000399678
0.00154143
0.000876395
0.000107069
8.37589e-05
0.000260625
7.59764e-05
6.45906e-05
9.60597e-05
0.000222529
6.78434e-05
6.58141e-05
0.00010039
0.000163559
7.47355e-05
0.000172163
0.000273167
0.000268673
0.00027467
0.000276113
0.000277216
0.000277093
0.000276973
0.000275339
0.00027786
0.000342402
0.000924367
0.00061029
9.74356e-05
7.15485e-05
0.000130572
6.88113e-05
6.40852e-05
7.38553e-05
0.000103486
6.70999e-05
6.45582e-05
7.38948e-05
8.51232e-05
6.69419e-05
9.05584e-05
0.00013384
0.000136177
0.000139218
0.000143241
0.000141634
0.000142576
0.000140213
0.000138195
0.000138718
0.000169742
0.000631066
0.000559802
9.6294e-05
6.77918e-05
7.84807e-05
6.78499e-05
6.40098e-05
6.73517e-05
7.16026e-05
6.66433e-05
6.4364e-05
6.66139e-05
6.68901e-05
6.58737e-05
7.16226e-05
8.08985e-05
7.99312e-05
8.05993e-05
8.15219e-05
8.11556e-05
8.13809e-05
8.08247e-05
8.03625e-05
8.10408e-05
0.000109674
0.000569989
0.000546925
9.55899e-05
6.70537e-05
6.4525e-05
6.72363e-05
6.39425e-05
6.65229e-05
6.41863e-05
6.61949e-05
6.42306e-05
6.58339e-05
6.39056e-05
6.55073e-05
6.78755e-05
6.65866e-05
6.48347e-05
6.5013e-05
6.51724e-05
6.51521e-05
6.51677e-05
6.50916e-05
6.4996e-05
6.57506e-05
9.45583e-05
0.000554297
0.000544144
9.55202e-05
6.65354e-05
6.35406e-05
6.66697e-05
6.38733e-05
6.60934e-05
6.37739e-05
6.5794e-05
6.41172e-05
6.54604e-05
6.37163e-05
6.51737e-05
6.7074e-05
6.51507e-05
6.35046e-05
6.35078e-05
6.35142e-05
6.35135e-05
6.35119e-05
6.35101e-05
6.35215e-05
6.42459e-05
9.27916e-05
0.000550879
0.000541835
9.59224e-05
6.6091e-05
6.3477e-05
6.61494e-05
6.38086e-05
6.56819e-05
6.36915e-05
6.54266e-05
6.40162e-05
6.51372e-05
6.36506e-05
6.48661e-05
6.64595e-05
6.48409e-05
6.34428e-05
6.34393e-05
6.34376e-05
6.34351e-05
6.34344e-05
6.34337e-05
6.34508e-05
6.41429e-05
9.20065e-05
0.000548583
0.000539046
9.60359e-05
6.56677e-05
6.3457e-05
6.56923e-05
6.37633e-05
6.53088e-05
6.36306e-05
6.50819e-05
6.39325e-05
6.48641e-05
6.3598e-05
6.46056e-05
6.59709e-05
6.46087e-05
6.34387e-05
6.34342e-05
6.34327e-05
6.34298e-05
6.34271e-05
6.34238e-05
6.344e-05
6.41177e-05
9.16104e-05
0.00054623
0.000536042
9.57878e-05
6.5257e-05
6.34377e-05
6.5259e-05
6.37144e-05
6.49669e-05
6.35724e-05
6.4756e-05
6.38547e-05
6.46018e-05
6.35471e-05
6.43781e-05
6.552e-05
6.43897e-05
6.34359e-05
6.34295e-05
6.34295e-05
6.34261e-05
6.34226e-05
6.34208e-05
6.34343e-05
6.40853e-05
9.12929e-05
0.000543901
0.000533226
9.56052e-05
6.48718e-05
6.34245e-05
6.48303e-05
6.36488e-05
6.46319e-05
6.352e-05
6.44473e-05
6.37641e-05
6.43522e-05
6.34987e-05
6.41576e-05
6.50861e-05
6.41817e-05
6.3435e-05
6.34293e-05
6.34262e-05
6.34212e-05
6.342e-05
6.34192e-05
6.34307e-05
6.40417e-05
9.05455e-05
0.000541745
0.000530581
9.58013e-05
6.45174e-05
6.34204e-05
6.44441e-05
6.36015e-05
6.4319e-05
6.34819e-05
6.41746e-05
6.36884e-05
6.41237e-05
6.34594e-05
6.39616e-05
6.46767e-05
6.40057e-05
6.34355e-05
6.34293e-05
6.34217e-05
6.34188e-05
6.34167e-05
6.34159e-05
6.34265e-05
6.40053e-05
8.97031e-05
0.000539619
0.000527211
9.64963e-05
6.42215e-05
6.3423e-05
6.4138e-05
6.35862e-05
6.40603e-05
6.34591e-05
6.39512e-05
6.36506e-05
6.39281e-05
6.34347e-05
6.38164e-05
6.43364e-05
6.3871e-05
6.34374e-05
6.34282e-05
6.34197e-05
6.34175e-05
6.34122e-05
6.34098e-05
6.34205e-05
6.39709e-05
8.92761e-05
0.000537543
0.00052309
9.66384e-05
6.39894e-05
6.34289e-05
6.38971e-05
6.35797e-05
6.38492e-05
6.34479e-05
6.37748e-05
6.36313e-05
6.37773e-05
6.34195e-05
6.37068e-05
6.40815e-05
6.37787e-05
6.34409e-05
6.34249e-05
6.34187e-05
6.34147e-05
6.34092e-05
6.34068e-05
6.34156e-05
6.39228e-05
8.85798e-05
0.000535618
0.000518739
9.61662e-05
6.38046e-05
6.3428e-05
6.37063e-05
6.35648e-05
6.36782e-05
6.34324e-05
6.36308e-05
6.35981e-05
6.36578e-05
6.34059e-05
6.36101e-05
6.38864e-05
6.36967e-05
6.34422e-05
6.34219e-05
6.34157e-05
6.34098e-05
6.34067e-05
6.34038e-05
6.34107e-05
6.38741e-05
8.75706e-05
0.000533684
0.000515199
9.37991e-05
6.36543e-05
6.34168e-05
6.35651e-05
6.35241e-05
6.35525e-05
6.34068e-05
6.35225e-05
6.3545e-05
6.356e-05
6.3396e-05
6.35292e-05
6.37257e-05
6.36105e-05
6.34404e-05
6.34186e-05
6.3412e-05
6.34061e-05
6.34022e-05
6.33983e-05
6.34042e-05
6.38344e-05
8.68196e-05
0.000531981
0.000512782
8.7306e-05
6.3543e-05
6.33911e-05
6.34736e-05
6.34691e-05
6.34709e-05
6.33866e-05
6.34531e-05
6.34872e-05
6.34885e-05
6.33897e-05
6.34685e-05
6.35977e-05
6.35348e-05
6.3432e-05
6.34114e-05
6.34073e-05
6.34017e-05
6.33962e-05
6.33934e-05
6.33981e-05
6.37915e-05
8.61147e-05
0.000530321
0.000511224
8.12352e-05
6.34733e-05
6.33756e-05
6.34219e-05
6.34289e-05
6.3424e-05
6.3376e-05
6.34127e-05
6.34412e-05
6.34429e-05
6.3386e-05
6.34265e-05
6.3508e-05
6.34772e-05
6.34158e-05
6.34041e-05
6.33997e-05
6.33947e-05
6.33914e-05
6.33901e-05
6.33941e-05
6.37424e-05
8.51159e-05
0.000528793
0.000509566
7.75149e-05
6.34355e-05
6.33697e-05
6.33946e-05
6.34032e-05
6.33986e-05
6.33727e-05
6.33917e-05
6.34119e-05
6.34136e-05
6.33837e-05
6.34027e-05
6.34499e-05
6.34352e-05
6.34027e-05
6.33969e-05
6.33925e-05
6.33892e-05
6.33874e-05
6.3386e-05
6.33897e-05
6.37009e-05
8.41906e-05
0.000527358
0.000507564
7.58566e-05
6.3417e-05
6.3369e-05
6.33816e-05
6.33878e-05
6.33857e-05
6.33728e-05
6.33819e-05
6.33945e-05
6.33956e-05
6.33815e-05
6.33909e-05
6.34146e-05
6.34082e-05
6.33931e-05
6.33891e-05
6.33867e-05
6.33848e-05
6.33828e-05
6.33815e-05
6.33856e-05
6.36625e-05
8.33327e-05
0.000526106
0.000506389
7.51793e-05
6.34082e-05
6.33696e-05
6.33759e-05
6.33789e-05
6.33791e-05
6.33731e-05
6.33771e-05
6.33838e-05
6.33852e-05
6.33788e-05
6.33834e-05
6.33949e-05
6.33928e-05
6.33859e-05
6.33836e-05
6.33822e-05
6.33803e-05
6.3379e-05
6.33786e-05
6.33824e-05
6.3626e-05
8.24693e-05
0.000525008
0.000506138
7.49369e-05
6.34044e-05
6.337e-05
6.33732e-05
6.33741e-05
6.33756e-05
6.33731e-05
6.33744e-05
6.33775e-05
6.3379e-05
6.33768e-05
6.33782e-05
6.33843e-05
6.33835e-05
6.33802e-05
6.33795e-05
6.33781e-05
6.33769e-05
6.33765e-05
6.33763e-05
6.33792e-05
6.35934e-05
8.16808e-05
0.00052397
0.000506183
7.48624e-05
6.34027e-05
6.33702e-05
6.33718e-05
6.33721e-05
6.33735e-05
6.33724e-05
6.3373e-05
6.33743e-05
6.33753e-05
6.33749e-05
6.33751e-05
6.33781e-05
6.33774e-05
6.33763e-05
6.33765e-05
6.3375e-05
6.33749e-05
6.33745e-05
6.33741e-05
6.33762e-05
6.35664e-05
8.10423e-05
0.000523053
0.000506377
7.48502e-05
6.34018e-05
6.33705e-05
6.33712e-05
6.33711e-05
6.3372e-05
6.33715e-05
6.33721e-05
6.33726e-05
6.33731e-05
6.33729e-05
6.33734e-05
6.33744e-05
6.33741e-05
6.33739e-05
6.33743e-05
6.33731e-05
6.33739e-05
6.33728e-05
6.33722e-05
6.33739e-05
6.35423e-05
8.0495e-05
0.000522244
0.000506832
7.48546e-05
6.3401e-05
6.33702e-05
6.33708e-05
6.33699e-05
6.33704e-05
6.33705e-05
6.33712e-05
6.33712e-05
6.33713e-05
6.33712e-05
6.33719e-05
6.3372e-05
6.33725e-05
6.33725e-05
6.33722e-05
6.33718e-05
6.33735e-05
6.33719e-05
6.3371e-05
6.33726e-05
6.35185e-05
7.97604e-05
0.000521542
0.000507793
7.48761e-05
6.34008e-05
6.33692e-05
6.33707e-05
6.33692e-05
6.33695e-05
6.33697e-05
6.33706e-05
6.33701e-05
6.33702e-05
6.33701e-05
6.33707e-05
6.33706e-05
6.33715e-05
6.33716e-05
6.33707e-05
6.33707e-05
6.33725e-05
6.33713e-05
6.33703e-05
6.33715e-05
6.35003e-05
7.91629e-05
0.000520886
0.00050859
7.49191e-05
6.34011e-05
6.33689e-05
6.33707e-05
6.33691e-05
6.33692e-05
6.33694e-05
6.33706e-05
6.33696e-05
6.33697e-05
6.33697e-05
6.33698e-05
6.33699e-05
6.3371e-05
6.3371e-05
6.33701e-05
6.33702e-05
6.33714e-05
6.3371e-05
6.33699e-05
6.33706e-05
6.34881e-05
7.87874e-05
0.000520308
0.00050958
7.49735e-05
6.34013e-05
6.33689e-05
6.33703e-05
6.33692e-05
6.33691e-05
6.33692e-05
6.33704e-05
6.33694e-05
6.33696e-05
6.33696e-05
6.33695e-05
6.33698e-05
6.33704e-05
6.33709e-05
6.33698e-05
6.33699e-05
6.33703e-05
6.33709e-05
6.33696e-05
6.33702e-05
6.34743e-05
7.82215e-05
0.00051989
0.000510158
7.49936e-05
6.34015e-05
6.33689e-05
6.33693e-05
6.33691e-05
6.33689e-05
6.33691e-05
6.33696e-05
6.33691e-05
6.33692e-05
6.33695e-05
6.33695e-05
6.33694e-05
6.337e-05
6.33706e-05
6.33697e-05
6.33699e-05
6.33697e-05
6.33706e-05
6.33694e-05
6.337e-05
6.34644e-05
7.79848e-05
0.000519415
0.000511099
7.5052e-05
6.34018e-05
6.33689e-05
6.33691e-05
6.33691e-05
6.33691e-05
6.33691e-05
6.33694e-05
6.33694e-05
6.33694e-05
6.33694e-05
6.33696e-05
6.33694e-05
6.33697e-05
6.337e-05
6.33694e-05
6.33697e-05
6.33695e-05
6.33699e-05
6.33693e-05
6.33698e-05
6.34549e-05
7.75531e-05
0.000519063
0.000511311
7.50591e-05
6.3402e-05
6.33691e-05
6.33692e-05
6.33693e-05
6.33693e-05
6.33691e-05
6.33694e-05
6.33696e-05
6.33696e-05
6.33694e-05
6.33698e-05
6.33695e-05
6.33694e-05
6.33695e-05
6.33693e-05
6.33694e-05
6.33695e-05
6.33694e-05
6.33693e-05
6.33696e-05
6.34457e-05
7.71656e-05
0.000518709
0.000512023
7.51135e-05
6.34023e-05
6.33692e-05
6.33694e-05
6.33695e-05
6.33695e-05
6.33692e-05
6.33696e-05
6.33698e-05
6.33698e-05
6.33695e-05
6.33699e-05
6.33697e-05
6.33694e-05
6.33696e-05
6.33695e-05
6.33695e-05
6.33696e-05
6.33695e-05
6.33694e-05
6.33697e-05
6.3442e-05
7.71103e-05
0.000518604
0.000512589
7.50887e-05
6.33851e-05
6.33519e-05
6.33522e-05
6.33523e-05
6.33524e-05
6.33519e-05
6.33526e-05
6.33528e-05
6.33529e-05
6.33525e-05
6.33529e-05
6.33531e-05
6.33525e-05
6.3353e-05
6.33532e-05
6.3353e-05
6.33532e-05
6.33531e-05
6.3353e-05
6.33533e-05
6.34171e-05
7.67951e-05
0.000517999
)
;

boundaryField
{
    inlet
    {
        type            fixedValue;
        value           uniform 3.75e-05;
    }
    outlet
    {
        type            inletOutlet;
        phi             phi.air;
        inletValue      uniform 3.75e-05;
        value           nonuniform List<scalar> 
25
(
0.000512589
7.50887e-05
6.33851e-05
6.33519e-05
6.33522e-05
6.33523e-05
6.33524e-05
6.33519e-05
6.33526e-05
6.33528e-05
6.33529e-05
6.33525e-05
6.33529e-05
6.33531e-05
6.33525e-05
6.3353e-05
6.33532e-05
6.3353e-05
6.33532e-05
6.33531e-05
6.3353e-05
6.33533e-05
6.34171e-05
7.67951e-05
0.000517999
)
;
    }
    walls
    {
        type            kqRWallFunction;
        value           nonuniform List<scalar> 
150
(
0.0213641
0.0277458
0.0241171
0.0150148
0.0133287
0.011225
0.0114786
0.0118241
0.0123837
0.0145651
0.0163653
0.0160704
0.0151464
0.016415
0.0192663
0.026257
0.0324435
0.0345572
0.0363755
0.0387189
0.0414198
0.0442152
0.0458729
0.0471092
0.0473129
0.0435602
0.031467
0.0237257
0.0196369
0.0174717
0.0162438
0.0157096
0.0156204
0.0155872
0.0152445
0.0142696
0.0127608
0.01156
0.0105623
0.00812468
0.00540713
0.00344859
0.00223877
0.0014838
0.000876395
0.00061029
0.000559802
0.000546925
0.000544144
0.000541835
0.000539046
0.000536042
0.000533226
0.000530581
0.000527211
0.00052309
0.000518739
0.000515199
0.000512782
0.000511224
0.000509566
0.000507564
0.000506389
0.000506138
0.000506183
0.000506377
0.000506832
0.000507793
0.00050859
0.00050958
0.000510158
0.000511099
0.000511311
0.000512023
0.000512589
0.0213793
0.029838
0.0248401
0.020131
0.0182769
0.0172709
0.017414
0.0183034
0.0211984
0.0272712
0.0342408
0.0398334
0.0433744
0.0454038
0.0468328
0.0434343
0.0241153
0.0109425
0.00713643
0.00619253
0.00805153
0.00957308
0.0107537
0.0118209
0.0134198
0.0149825
0.0159469
0.0162585
0.0161486
0.0157856
0.0152932
0.0147259
0.0140556
0.0132656
0.0123824
0.0117468
0.0115398
0.010835
0.00905867
0.00683428
0.00482478
0.00330265
0.002276
0.00154143
0.000924367
0.000631066
0.000569989
0.000554297
0.000550879
0.000548583
0.00054623
0.000543901
0.000541745
0.000539619
0.000537543
0.000535618
0.000533684
0.000531981
0.000530321
0.000528793
0.000527358
0.000526106
0.000525008
0.00052397
0.000523053
0.000522244
0.000521542
0.000520886
0.000520308
0.00051989
0.000519415
0.000519063
0.000518709
0.000518604
0.000517999
)
;
    }
    frontAndBack
    {
        type            empty;
    }
}


// ************************************************************************* //
