/*--------------------------------*- C++ -*----------------------------------*\
  =========                 |
  \\      /  F ield         | OpenFOAM: The Open Source CFD Toolbox
   \\    /   O peration     | Website:  https://openfoam.org
    \\  /    A nd           | Version:  dev
     \\/     M anipulation  |
\*---------------------------------------------------------------------------*/
FoamFile
{
    version     2.0;
    format      ascii;
    class       volScalarField;
    location    "1";
    object      km;
}
// * * * * * * * * * * * * * * * * * * * * * * * * * * * * * * * * * * * * * //

dimensions      [0 2 -2 0 0 0 0];

internalField   nonuniform List<scalar> 
1875
(
0.0213641
0.000268142
0.000126859
0.000128739
0.000126731
0.000130309
0.000127058
0.000129508
0.000126575
0.000130439
0.000128331
0.000128678
0.000127759
0.000130145
0.000129873
0.000129531
0.000128997
0.000129546
0.000129434
0.000129579
0.000129292
0.00012933
0.000129214
0.000226962
0.0213793
0.0277458
0.000911329
0.000159428
0.000129945
0.000159015
0.000179937
0.000167486
0.000135922
0.000142262
0.000181794
0.000182758
0.00015245
0.000149847
0.000162387
0.000156755
0.000138139
0.000130511
0.000131331
0.000131468
0.000130711
0.000129871
0.000128549
0.000128651
0.000819182
0.029838
0.0241171
0.00116881
0.000328039
0.000207141
0.000348467
0.000482503
0.000430988
0.00024195
0.000257426
0.000445036
0.000531102
0.000389482
0.000300952
0.000328992
0.000328657
0.00029663
0.000220438
0.000204379
0.000200381
0.000199371
0.000199726
0.000199441
0.000201484
0.00151892
0.0248401
0.0150148
0.0015078
0.000796692
0.000348451
0.000984336
0.00124343
0.00118108
0.000489609
0.000495113
0.00103939
0.00122372
0.0011151
0.000780928
0.000741531
0.000758365
0.000785048
0.000499081
0.000346183
0.00032305
0.00032383
0.000328856
0.000329661
0.000334028
0.00175906
0.020131
0.0133287
0.00311571
0.00113288
0.000737398
0.00143422
0.00109055
0.00119492
0.00097587
0.00104776
0.00105689
0.000916186
0.00105166
0.00113351
0.00114233
0.00121615
0.00133984
0.00110577
0.000732433
0.000645908
0.000645341
0.000663461
0.000667832
0.000677698
0.00240526
0.0182769
0.011225
0.0035782
0.00104654
0.000912332
0.00102552
0.00052373
0.000578393
0.000949123
0.0010697
0.00061476
0.000473155
0.000619729
0.000911857
0.00101729
0.00112836
0.00134963
0.00119877
0.000920127
0.000853157
0.000861967
0.00089785
0.000922394
0.000943793
0.00275709
0.0172709
0.0114786
0.00396501
0.000708693
0.000909273
0.000502438
0.000414999
0.000396822
0.00087289
0.000957537
0.000488833
0.0004167
0.000519355
0.00068284
0.000728093
0.000779558
0.000991997
0.00109291
0.00103604
0.00104027
0.0010745
0.00110245
0.00111778
0.0011413
0.00358098
0.017414
0.0118241
0.0036335
0.00047203
0.000874735
0.000382539
0.000443711
0.000384649
0.000755114
0.000628555
0.000454899
0.000436772
0.000469878
0.000457847
0.000468768
0.000465378
0.000558653
0.000852829
0.00100454
0.00104475
0.0011045
0.00111772
0.00112304
0.00114084
0.00418125
0.0183034
0.0123837
0.00357925
0.000371
0.000838645
0.000385748
0.000498015
0.000424034
0.000603932
0.00047282
0.000454937
0.000403929
0.000447266
0.000387504
0.000422087
0.000413018
0.000437476
0.000603966
0.000929127
0.00102274
0.00107914
0.00106361
0.00102589
0.000950604
0.00542265
0.0211984
0.0145651
0.00380422
0.000470044
0.00063152
0.000402137
0.000382376
0.000365663
0.000496137
0.000395023
0.000376129
0.000318086
0.000398108
0.000357684
0.000462655
0.000428419
0.000410897
0.000465394
0.000763135
0.000898586
0.000860653
0.00070458
0.000599865
0.000762111
0.00750378
0.0272712
0.0163653
0.00452065
0.00182953
0.000539584
0.000350029
0.000338552
0.000355004
0.000447076
0.000348533
0.000372497
0.000330486
0.000376864
0.000377876
0.000484565
0.000476738
0.000386966
0.000397862
0.000517154
0.000543609
0.000464373
0.000397977
0.000369668
0.000899502
0.0110762
0.0342408
0.0160704
0.00585394
0.00285337
0.000641177
0.000313129
0.000385474
0.000357911
0.000368131
0.000318436
0.000383341
0.000336504
0.000330848
0.000435257
0.00041232
0.00034591
0.000315802
0.000356643
0.000388755
0.000367811
0.000333965
0.000316631
0.000381205
0.00187688
0.0185349
0.0398334
0.0151464
0.0135475
0.0026489
0.000572503
0.000323916
0.000381641
0.000222787
0.000354359
0.000419946
0.00038694
0.000249095
0.000304039
0.000405086
0.000245786
0.000260779
0.000294996
0.000335406
0.000328807
0.00030948
0.000300596
0.000307171
0.000546625
0.00454801
0.0278507
0.0433744
0.016415
0.0198462
0.00148368
0.00042973
0.000369636
0.000298575
0.000218436
0.000355199
0.00049606
0.000319431
0.000209193
0.00029962
0.000328085
0.000190138
0.000263699
0.00029557
0.000311172
0.000302491
0.000296708
0.000295213
0.000321874
0.00112272
0.0102184
0.0353452
0.0454038
0.0192663
0.0153416
0.00150707
0.000346696
0.000372973
0.000308238
0.000244079
0.000324342
0.00040658
0.000287836
0.000242975
0.000278926
0.000290035
0.000202586
0.000290606
0.000303065
0.000303571
0.000296394
0.000295517
0.000298138
0.000342785
0.0016897
0.0149417
0.0391992
0.0468328
0.026257
0.0144964
0.00260197
0.000329923
0.000364313
0.000372714
0.000271474
0.000297615
0.000356165
0.00031583
0.000268805
0.000277888
0.000291336
0.000230329
0.00029314
0.000304283
0.000300024
0.000294801
0.000298132
0.000304357
0.00034147
0.00174025
0.0172659
0.0386681
0.0434343
0.0324435
0.0194196
0.00434049
0.000304539
0.000357367
0.000378353
0.000308777
0.0002786
0.000333826
0.000329099
0.000291396
0.000281982
0.0003006
0.00025083
0.000298483
0.000304635
0.00030939
0.000298284
0.000302996
0.000307852
0.000321428
0.00107202
0.0155293
0.0297698
0.0241153
0.0345572
0.0219123
0.00582278
0.000267159
0.000316335
0.000369467
0.000320277
0.000268246
0.000340088
0.00034489
0.000307503
0.000288093
0.000310994
0.000269597
0.000298986
0.000307313
0.000314422
0.000303563
0.000306227
0.000308838
0.000310524
0.000387941
0.00607978
0.0140895
0.0109425
0.0363755
0.023169
0.00657601
0.00028509
0.000300063
0.00035049
0.000313274
0.000272311
0.000357167
0.000359556
0.000318836
0.000295122
0.00031357
0.000280746
0.000299546
0.000303883
0.000311982
0.000312534
0.00030642
0.000306388
0.000308694
0.00031685
0.000706292
0.00475494
0.00713643
0.0387189
0.0258291
0.00696292
0.000352507
0.000300372
0.00036732
0.000300113
0.000278984
0.000366717
0.00036646
0.000320853
0.000302904
0.000315346
0.000292809
0.00029779
0.000302548
0.000304451
0.000308324
0.000306476
0.00030389
0.000307571
0.000309809
0.000321897
0.0019855
0.00619253
0.0414198
0.0270182
0.00667025
0.000416958
0.000300892
0.000375923
0.000296603
0.000284111
0.00036869
0.000370297
0.000321852
0.000311641
0.000307903
0.00029518
0.000297965
0.000297149
0.000302587
0.000306189
0.000306251
0.000303518
0.000306855
0.000307444
0.000307424
0.00155197
0.00805153
0.0442152
0.0270066
0.00645821
0.000460515
0.000299417
0.000381941
0.000299591
0.000284363
0.000366542
0.000371634
0.000321054
0.000314918
0.000297479
0.000294306
0.000296833
0.000297082
0.000300206
0.000303528
0.000303574
0.000303313
0.000304274
0.000305362
0.000305165
0.00158986
0.00957308
0.0458729
0.0260189
0.00574783
0.000473636
0.000298023
0.000383376
0.000302538
0.000283111
0.000362487
0.000368619
0.00031497
0.000314479
0.000292971
0.000289819
0.000293552
0.000290316
0.000295762
0.00029816
0.000298015
0.000296798
0.000297739
0.000298815
0.000299196
0.0016615
0.0107537
0.0471092
0.0241924
0.00485796
0.000450613
0.000297831
0.000378646
0.000298047
0.000275199
0.000363026
0.000359854
0.000304682
0.000311756
0.000295379
0.000285522
0.000285419
0.00028416
0.000287666
0.000292045
0.000288222
0.000285563
0.00028879
0.000289647
0.000291129
0.00164468
0.0118209
0.0473129
0.0213097
0.00365161
0.000385344
0.000297776
0.000376913
0.000288077
0.000265233
0.000367993
0.000353179
0.000291461
0.000307274
0.000304673
0.000281358
0.000283041
0.00027818
0.000282284
0.000280883
0.000272093
0.000269051
0.000274256
0.00027463
0.000276542
0.00166069
0.0134198
0.0435602
0.016674
0.00233785
0.000316909
0.000298961
0.000366872
0.000274908
0.000259135
0.000374623
0.000344167
0.000274959
0.00030039
0.000316373
0.000276313
0.000278834
0.000274907
0.00027463
0.000262283
0.000259137
0.00025858
0.000262244
0.000263161
0.000264852
0.00174945
0.0149825
0.031467
0.0110087
0.00118951
0.000266518
0.000298571
0.000347834
0.000260239
0.000251804
0.000378116
0.000335415
0.000258614
0.000289122
0.000327284
0.000269509
0.000273218
0.000266902
0.000263111
0.000247606
0.000247514
0.000248872
0.000251648
0.000252484
0.000252836
0.00179773
0.0159469
0.0237257
0.00672564
0.000533587
0.000245313
0.000286927
0.000325172
0.000242499
0.000243403
0.000377575
0.000325338
0.000242037
0.000274932
0.000322887
0.000263857
0.000265767
0.000258608
0.000249136
0.000237539
0.000239236
0.00024106
0.000243426
0.000244278
0.000244722
0.0017483
0.0162585
0.0196369
0.0040413
0.000290409
0.00023702
0.000262846
0.000309497
0.000222041
0.000234486
0.000375243
0.0003196
0.000227336
0.000261134
0.000310764
0.000257765
0.000259274
0.000249978
0.000240898
0.000232674
0.000235238
0.000236748
0.000238822
0.000239708
0.000240544
0.00161947
0.0161486
0.0174717
0.00269453
0.000236646
0.000230229
0.000240164
0.000301025
0.000207912
0.0002316
0.000375191
0.000316846
0.000216782
0.000247485
0.000296677
0.000255348
0.000254626
0.000243779
0.000239012
0.000231182
0.000233753
0.00023433
0.000235889
0.000236622
0.000237718
0.00147312
0.0157856
0.0162438
0.00225285
0.000231027
0.000225067
0.000228534
0.000298874
0.000198328
0.000223751
0.000383428
0.000312209
0.000211342
0.000233032
0.000280821
0.000249928
0.000249096
0.000237345
0.000233581
0.000229652
0.00023099
0.000230889
0.000231802
0.000232176
0.000233309
0.00132006
0.0152932
0.0157096
0.00216518
0.000227554
0.000217527
0.000225009
0.000301138
0.000187659
0.00021629
0.00038192
0.00030375
0.000209866
0.000220432
0.000260022
0.000242997
0.000238481
0.000226133
0.000225747
0.000224597
0.000225626
0.000225242
0.000225896
0.000226144
0.000227289
0.00116412
0.0147259
0.0156204
0.00220387
0.000219316
0.000210854
0.000221296
0.000302408
0.000177145
0.000210275
0.000362571
0.000290226
0.000210421
0.000211337
0.000238413
0.000239522
0.000229179
0.000216547
0.000219243
0.000218961
0.000220183
0.000219574
0.000220295
0.000220511
0.000221778
0.00101034
0.0140555
0.0155872
0.00223442
0.000204633
0.000207632
0.000211465
0.000299159
0.000168521
0.000204848
0.000336479
0.000272324
0.000210959
0.0002068
0.000218046
0.000237715
0.000224628
0.0002113
0.000214987
0.000214503
0.000215924
0.000215243
0.000216143
0.000216328
0.000217749
0.000865347
0.0132626
0.0152444
0.00217475
0.00018632
0.000204275
0.000196488
0.000290068
0.000161237
0.000200218
0.000307428
0.000251604
0.000210267
0.000202329
0.00019969
0.000235209
0.000221568
0.000207358
0.000211111
0.000209932
0.000211648
0.000210966
0.000211949
0.000212029
0.000213565
0.000730287
0.0123048
0.0142653
0.00199987
0.000169015
0.000196453
0.000180894
0.000272233
0.000156362
0.00019546
0.000273181
0.000228872
0.000208662
0.000196664
0.000183022
0.000230945
0.000216408
0.000201889
0.000205208
0.000203435
0.000205434
0.000204758
0.000205781
0.000205721
0.000207374
0.000605366
0.0111579
0.0126454
0.00173176
0.000153185
0.000187505
0.000164397
0.000243827
0.000151735
0.000189925
0.000231948
0.000202185
0.000204381
0.000189762
0.00016651
0.000225312
0.000208638
0.000194361
0.000197158
0.000195043
0.000197372
0.000196723
0.000197771
0.000197666
0.000199465
0.000495116
0.00980733
0.0105671
0.00138631
0.00013821
0.000180561
0.000147544
0.000206621
0.000146826
0.00018402
0.000195648
0.000172097
0.000198322
0.000183147
0.000148967
0.000218458
0.000199902
0.000186571
0.000188869
0.000186785
0.000189129
0.000188569
0.00018957
0.000189432
0.000191342
0.000404487
0.0082643
0.00823939
0.00101198
0.000122151
0.000175239
0.000130862
0.000166494
0.000139713
0.000179248
0.000155932
0.000143928
0.000185442
0.000175422
0.000128502
0.000207848
0.000190895
0.000178672
0.000180568
0.000178609
0.000180718
0.000179942
0.000181058
0.000180798
0.000182782
0.000332745
0.00657724
0.00588576
0.000675698
0.000105126
0.000168938
0.000107342
0.000129623
0.000124311
0.00017135
0.000114383
0.000113746
0.000163346
0.000162975
0.000104266
0.000190744
0.000179304
0.000168319
0.000169952
0.000168447
0.000170084
0.000169203
0.000170355
0.000170067
0.000171997
0.000276635
0.00484762
0.00376985
0.000388877
8.62151e-05
0.000154791
8.34599e-05
8.16848e-05
0.000105305
0.000154613
7.54445e-05
7.36038e-05
0.00013708
0.000146052
7.65478e-05
0.000168412
0.000162634
0.000153731
0.000155135
0.00015406
0.000155306
0.000154283
0.000155463
0.000155015
0.000156866
0.000230677
0.00322637
0.00209984
0.000165192
6.24257e-05
0.000135916
5.82699e-05
3.23941e-05
8.2435e-05
0.00013316
2.97016e-05
3.26747e-05
0.000104148
0.000122807
4.77043e-05
0.000139582
0.000140815
0.000133722
0.000135621
0.000134535
0.000135806
0.000134352
0.000135753
0.000135032
0.000136846
0.000190319
0.00187605
0.000957467
5.03758e-05
3.58665e-05
0.000112408
2.9075e-05
1.19206e-05
5.20233e-05
0.000104448
1.06589e-05
1.27088e-05
6.38926e-05
9.09418e-05
2.3248e-05
0.000100986
0.000113336
0.000109488
0.000110578
0.000110973
0.000110876
0.000110598
0.000110727
0.000110431
0.000111492
0.000150148
0.000909224
0.000349431
1.76114e-05
1.59298e-05
7.9087e-05
1.22136e-05
8.09821e-06
2.32135e-05
6.83422e-05
7.92742e-06
8.33079e-06
2.6779e-05
5.13277e-05
1.13358e-05
5.53164e-05
7.94391e-05
7.85029e-05
7.91585e-05
8.03626e-05
7.9658e-05
7.99937e-05
7.93672e-05
7.8915e-05
7.95265e-05
0.000103324
0.000357428
0.000122545
1.19713e-05
9.40927e-06
4.15342e-05
8.49114e-06
7.20589e-06
1.08735e-05
3.05195e-05
7.56881e-06
7.34343e-06
1.13832e-05
1.96292e-05
8.35478e-06
2.08498e-05
4.14097e-05
4.20883e-05
4.29565e-05
4.42289e-05
4.36114e-05
4.39337e-05
4.31532e-05
4.26025e-05
4.27034e-05
5.16821e-05
0.000131817
7.01959e-05
1.0871e-05
7.987e-06
1.53779e-05
7.67674e-06
7.14902e-06
8.2499e-06
1.18153e-05
7.48539e-06
7.20185e-06
8.25557e-06
9.5685e-06
7.46865e-06
1.01866e-05
1.57037e-05
1.60998e-05
1.649e-05
1.70656e-05
1.68185e-05
1.69605e-05
1.66155e-05
1.63405e-05
1.63839e-05
1.9939e-05
7.32115e-05
6.25778e-05
1.07421e-05
7.56277e-06
8.78834e-06
7.56896e-06
7.14058e-06
7.51386e-06
7.99805e-06
7.43436e-06
7.18009e-06
7.43159e-06
7.46511e-06
7.34852e-06
7.99369e-06
9.06069e-06
8.95843e-06
9.03661e-06
9.14481e-06
9.10191e-06
9.12836e-06
9.06318e-06
9.00896e-06
9.08449e-06
1.22869e-05
6.37821e-05
6.10154e-05
1.06634e-05
7.4801e-06
7.19885e-06
7.50048e-06
7.13304e-06
7.4209e-06
7.16044e-06
7.38431e-06
7.16518e-06
7.34404e-06
7.12899e-06
7.3076e-06
7.57187e-06
7.42907e-06
7.23382e-06
7.25391e-06
7.27184e-06
7.26956e-06
7.27132e-06
7.26276e-06
7.25198e-06
7.33618e-06
1.05501e-05
6.18409e-05
6.07014e-05
1.06556e-05
7.42226e-06
7.08818e-06
7.43724e-06
7.12529e-06
7.37295e-06
7.1142e-06
7.33956e-06
7.1525e-06
7.30234e-06
7.10778e-06
7.27035e-06
7.48234e-06
7.2678e-06
7.08418e-06
7.08453e-06
7.08524e-06
7.08517e-06
7.08499e-06
7.08479e-06
7.08606e-06
7.16687e-06
1.03512e-05
6.14527e-05
6.04437e-05
1.07005e-05
7.37266e-06
7.08106e-06
7.37917e-06
7.11804e-06
7.32702e-06
7.10499e-06
7.29854e-06
7.14121e-06
7.26625e-06
7.10043e-06
7.23602e-06
7.41376e-06
7.23321e-06
7.07724e-06
7.07685e-06
7.07666e-06
7.07638e-06
7.0763e-06
7.07623e-06
7.07813e-06
7.15533e-06
1.02636e-05
6.11964e-05
6.01323e-05
1.07131e-05
7.3254e-06
7.0788e-06
7.32816e-06
7.11296e-06
7.28537e-06
7.09817e-06
7.26006e-06
7.13184e-06
7.23577e-06
7.09452e-06
7.20693e-06
7.35923e-06
7.20727e-06
7.07675e-06
7.07625e-06
7.07609e-06
7.07576e-06
7.07546e-06
7.07509e-06
7.0769e-06
7.1525e-06
1.02194e-05
6.09336e-05
5.97969e-05
1.06853e-05
7.27957e-06
7.07662e-06
7.27979e-06
7.10749e-06
7.2472e-06
7.09165e-06
7.22367e-06
7.12313e-06
7.20648e-06
7.08882e-06
7.18152e-06
7.3089e-06
7.18281e-06
7.07641e-06
7.0757e-06
7.0757e-06
7.07532e-06
7.07494e-06
7.07473e-06
7.07623e-06
7.14885e-06
1.01839e-05
6.06736e-05
5.94825e-05
1.06649e-05
7.23656e-06
7.07512e-06
7.23193e-06
7.10014e-06
7.2098e-06
7.08577e-06
7.18922e-06
7.113e-06
7.1786e-06
7.08339e-06
7.1569e-06
7.26047e-06
7.15958e-06
7.07628e-06
7.07565e-06
7.0753e-06
7.07475e-06
7.07461e-06
7.07453e-06
7.07581e-06
7.14396e-06
1.01005e-05
6.04329e-05
5.91872e-05
1.06868e-05
7.197e-06
7.07463e-06
7.18882e-06
7.09484e-06
7.17488e-06
7.08149e-06
7.15876e-06
7.10453e-06
7.15308e-06
7.07898e-06
7.135e-06
7.21477e-06
7.13992e-06
7.07631e-06
7.07563e-06
7.07478e-06
7.07445e-06
7.07422e-06
7.07413e-06
7.07532e-06
7.13987e-06
1.00065e-05
6.01954e-05
5.8811e-05
1.07643e-05
7.16397e-06
7.07489e-06
7.15465e-06
7.0931e-06
7.14599e-06
7.07892e-06
7.13381e-06
7.10028e-06
7.13124e-06
7.0762e-06
7.11877e-06
7.17679e-06
7.12486e-06
7.0765e-06
7.07547e-06
7.07452e-06
7.07428e-06
7.07369e-06
7.07342e-06
7.07461e-06
7.13601e-06
9.95884e-06
5.99636e-05
5.83512e-05
1.07801e-05
7.13804e-06
7.07553e-06
7.12775e-06
7.09234e-06
7.12241e-06
7.07764e-06
7.11411e-06
7.0981e-06
7.11439e-06
7.07447e-06
7.10653e-06
7.14832e-06
7.11455e-06
7.07687e-06
7.07508e-06
7.07439e-06
7.07394e-06
7.07333e-06
7.07306e-06
7.07404e-06
7.13062e-06
9.88112e-06
5.97486e-05
5.78655e-05
1.07274e-05
7.1174e-06
7.07539e-06
7.10644e-06
7.09066e-06
7.10331e-06
7.07589e-06
7.09802e-06
7.09437e-06
7.10103e-06
7.07293e-06
7.09571e-06
7.12652e-06
7.10537e-06
7.07698e-06
7.07471e-06
7.07403e-06
7.07336e-06
7.07302e-06
7.07269e-06
7.07346e-06
7.12516e-06
9.76851e-06
5.95327e-05
5.74704e-05
1.04633e-05
7.10061e-06
7.07412e-06
7.09067e-06
7.08608e-06
7.08926e-06
7.073e-06
7.08591e-06
7.08842e-06
7.0901e-06
7.07179e-06
7.08666e-06
7.10857e-06
7.09572e-06
7.07675e-06
7.07432e-06
7.07358e-06
7.07292e-06
7.07249e-06
7.07205e-06
7.07271e-06
7.1207e-06
9.6847e-06
5.93425e-05
5.72006e-05
9.73892e-06
7.08816e-06
7.07122e-06
7.08043e-06
7.07993e-06
7.08013e-06
7.07072e-06
7.07814e-06
7.08194e-06
7.08209e-06
7.07107e-06
7.07986e-06
7.09427e-06
7.08725e-06
7.07579e-06
7.07349e-06
7.07303e-06
7.0724e-06
7.0718e-06
7.07148e-06
7.07201e-06
7.11589e-06
9.60603e-06
5.9157e-05
5.70266e-05
9.06168e-06
7.08036e-06
7.06946e-06
7.07463e-06
7.07542e-06
7.07487e-06
7.06951e-06
7.0736e-06
7.07678e-06
7.07697e-06
7.07062e-06
7.07514e-06
7.08424e-06
7.0808e-06
7.07395e-06
7.07265e-06
7.07216e-06
7.07159e-06
7.07123e-06
7.07109e-06
7.07153e-06
7.11039e-06
9.49458e-06
5.89864e-05
5.68414e-05
8.64665e-06
7.07612e-06
7.06878e-06
7.07156e-06
7.07252e-06
7.07201e-06
7.06911e-06
7.07124e-06
7.07349e-06
7.07368e-06
7.07034e-06
7.07246e-06
7.07773e-06
7.07609e-06
7.07246e-06
7.07182e-06
7.07133e-06
7.07096e-06
7.07075e-06
7.07059e-06
7.07101e-06
7.10573e-06
9.39132e-06
5.88261e-05
5.66179e-05
8.46165e-06
7.07403e-06
7.06867e-06
7.07008e-06
7.07077e-06
7.07054e-06
7.0691e-06
7.07011e-06
7.07152e-06
7.07164e-06
7.07007e-06
7.07112e-06
7.07377e-06
7.07305e-06
7.07137e-06
7.07092e-06
7.07065e-06
7.07044e-06
7.07021e-06
7.07007e-06
7.07052e-06
7.10142e-06
9.29559e-06
5.86862e-05
5.64866e-05
8.38606e-06
7.07302e-06
7.06871e-06
7.06942e-06
7.06975e-06
7.06977e-06
7.0691e-06
7.06955e-06
7.07029e-06
7.07045e-06
7.06974e-06
7.07025e-06
7.07153e-06
7.0713e-06
7.07053e-06
7.07027e-06
7.07012e-06
7.06991e-06
7.06977e-06
7.06972e-06
7.07014e-06
7.09732e-06
9.19925e-06
5.85635e-05
5.64584e-05
8.35898e-06
7.07257e-06
7.06873e-06
7.06909e-06
7.06919e-06
7.06935e-06
7.06908e-06
7.06922e-06
7.06956e-06
7.06974e-06
7.06949e-06
7.06965e-06
7.07033e-06
7.07024e-06
7.06987e-06
7.06979e-06
7.06963e-06
7.0695e-06
7.06946e-06
7.06944e-06
7.06975e-06
7.09365e-06
9.11125e-06
5.84475e-05
5.64631e-05
8.35064e-06
7.07235e-06
7.06873e-06
7.06891e-06
7.06894e-06
7.06909e-06
7.06897e-06
7.06904e-06
7.06918e-06
7.0693e-06
7.06924e-06
7.06927e-06
7.0696e-06
7.06953e-06
7.06941e-06
7.06942e-06
7.06926e-06
7.06925e-06
7.06921e-06
7.06916e-06
7.06939e-06
7.09061e-06
9.03999e-06
5.83449e-05
5.64846e-05
8.34925e-06
7.07222e-06
7.06873e-06
7.0688e-06
7.0688e-06
7.0689e-06
7.06884e-06
7.06891e-06
7.06897e-06
7.06902e-06
7.069e-06
7.06905e-06
7.06917e-06
7.06913e-06
7.06911e-06
7.06915e-06
7.06902e-06
7.06911e-06
7.06899e-06
7.06892e-06
7.06911e-06
7.08789e-06
8.97891e-06
5.82544e-05
5.65351e-05
8.3497e-06
7.0721e-06
7.06867e-06
7.06873e-06
7.06863e-06
7.0687e-06
7.06871e-06
7.06878e-06
7.06878e-06
7.06879e-06
7.06878e-06
7.06885e-06
7.06887e-06
7.06893e-06
7.06893e-06
7.06889e-06
7.06885e-06
7.06904e-06
7.06886e-06
7.06876e-06
7.06894e-06
7.08521e-06
8.89693e-06
5.81759e-05
5.66421e-05
8.35207e-06
7.07205e-06
7.06853e-06
7.0687e-06
7.06852e-06
7.06856e-06
7.06858e-06
7.06869e-06
7.06863e-06
7.06864e-06
7.06863e-06
7.0687e-06
7.06869e-06
7.06879e-06
7.06879e-06
7.06869e-06
7.0687e-06
7.0689e-06
7.06876e-06
7.06865e-06
7.06879e-06
7.08316e-06
8.83025e-06
5.81025e-05
5.67307e-05
8.35684e-06
7.07206e-06
7.06847e-06
7.06867e-06
7.0685e-06
7.0685e-06
7.06852e-06
7.06865e-06
7.06854e-06
7.06855e-06
7.06856e-06
7.06857e-06
7.06859e-06
7.0687e-06
7.06871e-06
7.0686e-06
7.06861e-06
7.06875e-06
7.0687e-06
7.06858e-06
7.06866e-06
7.08176e-06
8.78832e-06
5.80379e-05
5.6841e-05
8.36287e-06
7.07206e-06
7.06845e-06
7.0686e-06
7.06848e-06
7.06846e-06
7.06848e-06
7.06861e-06
7.06849e-06
7.06852e-06
7.06852e-06
7.0685e-06
7.06854e-06
7.0686e-06
7.06866e-06
7.06854e-06
7.06855e-06
7.0686e-06
7.06866e-06
7.06852e-06
7.06858e-06
7.0802e-06
8.72516e-06
5.7991e-05
5.69052e-05
8.36508e-06
7.07205e-06
7.06841e-06
7.06846e-06
7.06843e-06
7.06841e-06
7.06843e-06
7.06849e-06
7.06844e-06
7.06845e-06
7.06848e-06
7.06848e-06
7.06847e-06
7.06854e-06
7.0686e-06
7.0685e-06
7.06852e-06
7.0685e-06
7.0686e-06
7.06846e-06
7.06854e-06
7.07906e-06
8.69874e-06
5.79377e-05
5.70099e-05
8.37156e-06
7.07205e-06
7.06839e-06
7.0684e-06
7.06841e-06
7.06841e-06
7.06841e-06
7.06844e-06
7.06844e-06
7.06844e-06
7.06844e-06
7.06847e-06
7.06844e-06
7.06848e-06
7.06851e-06
7.06844e-06
7.06848e-06
7.06845e-06
7.06849e-06
7.06843e-06
7.06849e-06
7.07797e-06
8.65055e-06
5.78983e-05
5.70333e-05
8.37233e-06
7.07205e-06
7.06838e-06
7.06839e-06
7.0684e-06
7.06841e-06
7.06838e-06
7.06842e-06
7.06844e-06
7.06843e-06
7.06841e-06
7.06846e-06
7.06843e-06
7.06841e-06
7.06843e-06
7.06841e-06
7.06842e-06
7.06842e-06
7.06842e-06
7.0684e-06
7.06844e-06
7.07692e-06
8.60728e-06
5.78586e-05
5.71126e-05
8.37835e-06
7.07205e-06
7.06837e-06
7.06838e-06
7.06839e-06
7.0684e-06
7.06837e-06
7.06841e-06
7.06843e-06
7.06843e-06
7.06839e-06
7.06844e-06
7.06842e-06
7.06838e-06
7.0684e-06
7.0684e-06
7.06839e-06
7.06841e-06
7.06839e-06
7.06838e-06
7.06842e-06
7.07648e-06
8.60109e-06
5.78466e-05
5.71754e-05
8.37555e-06
7.0701e-06
7.06641e-06
7.06644e-06
7.06645e-06
7.06646e-06
7.06641e-06
7.06648e-06
7.06651e-06
7.06651e-06
7.06648e-06
7.06651e-06
7.06653e-06
7.06647e-06
7.06652e-06
7.06654e-06
7.06652e-06
7.06655e-06
7.06654e-06
7.06653e-06
7.06656e-06
7.07368e-06
8.5659e-06
5.77789e-05
)
;

boundaryField
{
    inlet
    {
        type            fixedValue;
        value           uniform 3.75e-05;
    }
    outlet
    {
        type            inletOutlet;
        inletValue      uniform 3.75e-05;
        value           nonuniform List<scalar> 
25
(
5.71754e-05
8.37555e-06
7.0701e-06
7.06641e-06
7.06644e-06
7.06645e-06
7.06646e-06
7.06641e-06
7.06648e-06
7.06651e-06
7.06651e-06
7.06648e-06
7.06651e-06
7.06653e-06
7.06647e-06
7.06652e-06
7.06654e-06
7.06652e-06
7.06655e-06
7.06654e-06
7.06653e-06
7.06656e-06
7.07368e-06
8.5659e-06
5.77789e-05
)
;
    }
    walls
    {
        type            kqRWallFunction;
        value           nonuniform List<scalar> 
150
(
0.0213641
0.0277458
0.0241171
0.0150148
0.0133287
0.011225
0.0114786
0.0118241
0.0123837
0.0145651
0.0163653
0.0160704
0.0151464
0.016415
0.0192663
0.026257
0.0324435
0.0345572
0.0363755
0.0387189
0.0414198
0.0442152
0.0458729
0.0471092
0.0473129
0.0435602
0.031467
0.0237257
0.0196369
0.0174717
0.0162438
0.0157096
0.0156204
0.0155872
0.0152444
0.0142653
0.0126454
0.0105671
0.00823939
0.00588576
0.00376985
0.00209984
0.000957467
0.000349431
0.000122545
7.01959e-05
6.25778e-05
6.10154e-05
6.07014e-05
6.04437e-05
6.01323e-05
5.97969e-05
5.94825e-05
5.91872e-05
5.8811e-05
5.83512e-05
5.78655e-05
5.74704e-05
5.72006e-05
5.70266e-05
5.68414e-05
5.66179e-05
5.64866e-05
5.64584e-05
5.64631e-05
5.64846e-05
5.65351e-05
5.66421e-05
5.67307e-05
5.6841e-05
5.69052e-05
5.70099e-05
5.70333e-05
5.71126e-05
5.71754e-05
0.0213793
0.029838
0.0248401
0.020131
0.0182769
0.0172709
0.017414
0.0183034
0.0211984
0.0272712
0.0342408
0.0398334
0.0433744
0.0454038
0.0468328
0.0434343
0.0241153
0.0109425
0.00713643
0.00619253
0.00805153
0.00957308
0.0107537
0.0118209
0.0134198
0.0149825
0.0159469
0.0162585
0.0161486
0.0157856
0.0152932
0.0147259
0.0140555
0.0132626
0.0123048
0.0111579
0.00980733
0.0082643
0.00657724
0.00484762
0.00322637
0.00187605
0.000909224
0.000357428
0.000131817
7.32115e-05
6.37821e-05
6.18409e-05
6.14527e-05
6.11964e-05
6.09336e-05
6.06736e-05
6.04329e-05
6.01954e-05
5.99636e-05
5.97486e-05
5.95327e-05
5.93425e-05
5.9157e-05
5.89864e-05
5.88261e-05
5.86862e-05
5.85635e-05
5.84475e-05
5.83449e-05
5.82544e-05
5.81759e-05
5.81025e-05
5.80379e-05
5.7991e-05
5.79377e-05
5.78983e-05
5.78586e-05
5.78466e-05
5.77789e-05
)
;
    }
    frontAndBack
    {
        type            empty;
    }
}


// ************************************************************************* //
