/*--------------------------------*- C++ -*----------------------------------*\
  =========                 |
  \\      /  F ield         | OpenFOAM: The Open Source CFD Toolbox
   \\    /   O peration     | Website:  https://openfoam.org
    \\  /    A nd           | Version:  dev
     \\/     M anipulation  |
\*---------------------------------------------------------------------------*/
FoamFile
{
    version     2.0;
    format      ascii;
    class       volScalarField;
    location    "1";
    object      nut.air;
}
// * * * * * * * * * * * * * * * * * * * * * * * * * * * * * * * * * * * * * //

dimensions      [0 2 -1 0 0 0 0];

internalField   nonuniform List<scalar> 
1875
(
1.70812e-06
5.05186e-11
1.14576e-11
1.19648e-11
1.1573e-11
1.19953e-11
1.13885e-11
1.2283e-11
1.12345e-11
1.17157e-11
1.09631e-11
1.16286e-11
1.12894e-11
1.16039e-11
1.16528e-11
1.14811e-11
1.13056e-11
1.13748e-11
1.13674e-11
1.13955e-11
1.14019e-11
1.15141e-11
1.15111e-11
3.58285e-11
1.64541e-06
1.8936e-06
2.15805e-09
5.47004e-11
4.13237e-11
5.43014e-11
6.34726e-11
5.53295e-11
4.52764e-11
4.93246e-11
6.45797e-11
6.11996e-11
4.58865e-11
4.77164e-11
5.6534e-11
5.47821e-11
4.46213e-11
4.35142e-11
4.12953e-11
3.89105e-11
3.84919e-11
3.86571e-11
3.90661e-11
4.01345e-11
1.62342e-09
2.06332e-06
1.43994e-06
4.12593e-09
2.59597e-10
1.03633e-10
2.85323e-10
5.44219e-10
4.34604e-10
1.47571e-10
1.7514e-10
4.89155e-10
6.78525e-10
3.78202e-10
2.31072e-10
2.68645e-10
2.56961e-10
1.64267e-10
1.19125e-10
1.05767e-10
1.01039e-10
1.00367e-10
1.01129e-10
1.01704e-10
1.0593e-10
6.09232e-09
1.5732e-06
6.09666e-07
6.78622e-09
1.66892e-09
3.32015e-10
2.26162e-09
3.83572e-09
3.47359e-09
6.65891e-10
7.29731e-10
2.77068e-09
3.75903e-09
3.28946e-09
1.67013e-09
1.50188e-09
1.56377e-09
1.15502e-09
6.0392e-10
3.41107e-10
2.94466e-10
2.92896e-10
3.03475e-10
3.06595e-10
3.18736e-10
8.94583e-09
1.16983e-06
4.5843e-07
2.0959e-08
3.34032e-09
1.41146e-09
3.8698e-09
2.68209e-09
3.55107e-09
2.4174e-09
2.85146e-09
2.64526e-09
1.97636e-09
2.74025e-09
3.24682e-09
3.4271e-09
3.72795e-09
3.13765e-09
2.60808e-09
1.43923e-09
1.15635e-09
1.14838e-09
1.21793e-09
1.23952e-09
1.28367e-09
1.63146e-08
9.67323e-07
3.455e-07
2.70517e-08
3.2469e-09
2.37274e-09
1.91349e-09
4.95637e-10
8.14672e-10
2.49727e-09
3.36331e-09
8.41393e-10
4.70796e-10
9.21832e-10
2.07931e-09
2.77558e-09
3.39709e-09
3.00155e-09
2.70244e-09
2.29893e-09
2.21586e-09
2.23538e-09
2.42089e-09
2.53851e-09
2.65078e-09
2.24947e-08
8.95491e-07
3.57237e-07
3.00407e-08
1.45314e-09
2.30237e-09
4.28316e-10
2.69708e-10
3.43562e-10
2.01429e-09
2.55077e-09
5.13796e-10
3.45788e-10
6.9581e-10
1.1457e-09
1.2847e-09
1.11911e-09
1.5239e-09
1.98404e-09
2.63629e-09
3.31398e-09
3.55471e-09
3.70877e-09
3.74084e-09
3.86372e-09
3.78387e-08
9.11589e-07
3.87297e-07
2.61358e-08
6.61364e-10
2.28756e-09
2.73995e-10
3.03318e-10
3.16385e-10
1.5066e-09
1.12892e-09
4.45667e-10
4.15117e-10
5.93084e-10
5.42054e-10
4.60207e-10
3.57225e-10
4.58094e-10
1.14647e-09
2.24493e-09
3.38957e-09
3.90942e-09
3.97411e-09
3.91164e-09
3.97876e-09
5.29617e-08
1.00757e-06
4.14717e-07
2.40251e-08
3.394e-10
2.03173e-09
3.05054e-10
4.5189e-10
4.897e-10
1.10618e-09
5.88442e-10
4.43846e-10
5.20792e-10
6.39136e-10
4.60126e-10
3.29041e-10
2.36124e-10
2.67705e-10
5.49481e-10
1.80718e-09
3.21688e-09
3.70646e-09
3.57063e-09
3.28503e-09
2.78071e-09
8.97079e-08
1.30753e-06
5.63714e-07
2.81129e-08
4.52285e-10
1.09947e-09
3.65801e-10
3.70788e-10
4.86459e-10
7.89458e-10
4.43313e-10
3.46433e-10
4.25813e-10
5.82307e-10
5.03376e-10
5.24987e-10
2.44065e-10
2.19793e-10
3.24372e-10
1.13694e-09
2.40875e-09
2.35434e-09
1.56193e-09
1.12292e-09
1.78602e-09
1.70095e-07
1.88828e-06
6.70125e-07
3.77318e-08
5.50266e-09
7.01886e-10
2.60733e-10
3.66219e-10
4.40746e-10
6.61749e-10
3.27008e-10
3.41217e-10
4.23158e-10
4.47584e-10
5.4133e-10
6.32439e-10
2.66046e-10
1.7877e-10
2.2311e-10
5.07152e-10
8.93332e-10
6.87482e-10
4.93285e-10
4.23134e-10
2.45292e-09
3.53722e-07
2.44956e-06
6.25912e-07
6.14272e-08
1.47376e-08
9.97877e-10
2.85823e-10
5.08395e-10
5.30727e-10
4.73593e-10
2.77161e-10
4.5849e-10
4.10326e-10
3.5991e-10
5.00581e-10
4.23716e-10
1.58286e-10
1.24422e-10
1.8765e-10
2.88315e-10
3.914e-10
3.37167e-10
3.06514e-10
4.38567e-10
1.03377e-08
8.50923e-07
2.83342e-06
5.17129e-07
2.96838e-07
1.90601e-08
8.80647e-10
3.84362e-10
6.95975e-10
3.09168e-10
3.19267e-10
4.73502e-10
6.1534e-10
3.52678e-10
2.9521e-10
5.49819e-10
2.51338e-10
1.68645e-10
1.5788e-10
1.76763e-10
2.02869e-10
2.58528e-10
2.64955e-10
2.77062e-10
8.37043e-10
5.30545e-08
1.55606e-06
3.0731e-06
5.84815e-07
7.45836e-07
1.02363e-08
4.85418e-10
5.57056e-10
5.61499e-10
1.82005e-10
2.73723e-10
9.08542e-10
5.64474e-10
2.38466e-10
2.50945e-10
5.50448e-10
2.39098e-10
2.0018e-10
1.66072e-10
1.54362e-10
1.83619e-10
2.28687e-10
2.46664e-10
2.77678e-10
2.93411e-09
2.18787e-07
2.28358e-06
3.2364e-06
8.03997e-07
6.66642e-07
1.1819e-08
3.32806e-10
6.55318e-10
5.18543e-10
1.59934e-10
2.87342e-10
9.17186e-10
5.28508e-10
2.25182e-10
2.06567e-10
5.244e-10
2.12976e-10
1.86085e-10
1.61366e-10
1.52764e-10
1.84774e-10
2.0917e-10
2.19182e-10
2.56817e-10
5.60607e-09
4.21528e-07
2.70137e-06
3.3459e-06
1.39955e-06
7.1073e-07
3.43378e-08
3.04862e-10
6.41046e-10
6.63253e-10
1.94007e-10
2.88165e-10
8.22574e-10
5.5176e-10
2.38525e-10
2.19764e-10
5.26102e-10
1.96233e-10
1.66795e-10
1.53245e-10
1.62931e-10
1.87037e-10
1.87633e-10
1.84875e-10
2.1812e-10
5.35113e-09
5.17653e-07
2.54635e-06
3.15421e-06
1.9662e-06
1.36807e-06
8.68658e-08
2.52054e-10
6.47735e-10
7.85912e-10
2.3616e-10
2.819e-10
8.46413e-10
5.77365e-10
2.6716e-10
2.74134e-10
5.10759e-10
1.84773e-10
1.56763e-10
1.5234e-10
1.67267e-10
1.84813e-10
1.71424e-10
1.66482e-10
1.79844e-10
1.93201e-09
4.01665e-07
1.56273e-06
1.78694e-06
2.16018e-06
2.00674e-06
1.59735e-07
2.36664e-10
5.73746e-10
9.29489e-10
3.36609e-10
2.86286e-10
8.66592e-10
6.19933e-10
2.95593e-10
3.39695e-10
5.14689e-10
1.79098e-10
1.53565e-10
1.5038e-10
1.65664e-10
1.81841e-10
1.66485e-10
1.62169e-10
1.66498e-10
2.42156e-10
6.2394e-08
3.94495e-07
5.86634e-07
2.33968e-06
2.36191e-06
2.29174e-07
2.92958e-10
5.45063e-10
9.46235e-10
4.14311e-10
2.9732e-10
9.03196e-10
6.66295e-10
3.34217e-10
3.77129e-10
4.99248e-10
1.73096e-10
1.48587e-10
1.47021e-10
1.54725e-10
1.70609e-10
1.6826e-10
1.65091e-10
1.67728e-10
1.53962e-10
8.12975e-10
4.81901e-08
2.62722e-07
2.61749e-06
2.59949e-06
2.88201e-07
4.51107e-10
5.33601e-10
1.04232e-09
4.18204e-10
3.28971e-10
9.30355e-10
7.00848e-10
3.99402e-10
4.07977e-10
4.78622e-10
1.60419e-10
1.43866e-10
1.40715e-10
1.45361e-10
1.52898e-10
1.65029e-10
1.63784e-10
1.57322e-10
1.47155e-10
1.61102e-10
7.55574e-09
1.9136e-07
2.99819e-06
2.61969e-06
2.82164e-07
5.96037e-10
5.29822e-10
1.08345e-09
4.28337e-10
3.49968e-10
9.63465e-10
7.41481e-10
4.52306e-10
4.46742e-10
4.45021e-10
1.50549e-10
1.41207e-10
1.36799e-10
1.4022e-10
1.41257e-10
1.4903e-10
1.59384e-10
1.47354e-10
1.46841e-10
1.44112e-10
4.31565e-09
3.26047e-07
3.38761e-06
2.51732e-06
2.65235e-07
6.82129e-10
5.28855e-10
1.1257e-09
4.49257e-10
3.58366e-10
9.97872e-10
7.87102e-10
4.92375e-10
4.73534e-10
4.06664e-10
1.41124e-10
1.39684e-10
1.33268e-10
1.35748e-10
1.35331e-10
1.38792e-10
1.43237e-10
1.41237e-10
1.45564e-10
1.41661e-10
4.3041e-09
4.88403e-07
3.61568e-06
2.32191e-06
2.09032e-07
7.19433e-10
5.12368e-10
1.20299e-09
4.65701e-10
3.49495e-10
1.01906e-09
8.58426e-10
5.21581e-10
5.01958e-10
3.83485e-10
1.34371e-10
1.33889e-10
1.28436e-10
1.28247e-10
1.29494e-10
1.32973e-10
1.37472e-10
1.36216e-10
1.43734e-10
1.37506e-10
5.16561e-09
6.86778e-07
3.68604e-06
2.04916e-06
1.48354e-07
6.69811e-10
4.8495e-10
1.25881e-09
4.48938e-10
3.26347e-10
1.02914e-09
9.21307e-10
5.40403e-10
5.31344e-10
3.73383e-10
1.25484e-10
1.26158e-10
1.22546e-10
1.21437e-10
1.33959e-10
1.55194e-10
1.70791e-10
1.57154e-10
1.68941e-10
1.57822e-10
7.73846e-09
8.90276e-07
3.66308e-06
1.67973e-06
8.2098e-08
4.916e-10
4.66256e-10
1.29993e-09
4.06895e-10
3.01384e-10
1.07838e-09
1.02332e-09
5.54382e-10
5.70402e-10
3.86334e-10
1.20262e-10
1.20408e-10
1.22019e-10
1.21084e-10
1.80019e-10
2.34946e-10
2.62697e-10
2.36856e-10
2.50194e-10
2.4197e-10
1.1823e-08
1.14876e-06
3.47225e-06
1.19782e-06
3.1813e-08
3.22876e-10
4.56289e-10
1.31524e-09
3.60164e-10
2.70641e-10
1.11569e-09
1.12798e-09
5.5345e-10
6.15556e-10
4.21633e-10
1.14434e-10
1.14695e-10
1.18147e-10
1.20584e-10
2.52937e-10
2.97913e-10
3.17792e-10
3.01356e-10
3.08825e-10
3.06872e-10
1.61424e-08
1.41412e-06
2.92178e-06
6.72582e-07
7.73338e-09
2.22661e-10
4.32058e-10
1.31531e-09
3.14391e-10
2.08488e-10
1.09921e-09
1.24564e-09
5.42649e-10
6.48557e-10
5.02991e-10
1.1803e-10
1.05248e-10
1.07454e-10
1.28728e-10
2.88938e-10
3.25007e-10
3.34801e-10
3.26864e-10
3.32613e-10
3.38346e-10
1.84008e-08
1.60776e-06
2.5275e-06
3.20491e-07
1.51475e-09
1.7191e-10
3.92515e-10
1.33681e-09
2.76625e-10
1.50856e-10
1.05493e-09
1.36067e-09
5.19757e-10
6.5636e-10
5.91518e-10
1.45388e-10
9.52221e-11
9.57402e-11
1.69966e-10
3.05529e-10
3.30905e-10
3.36897e-10
3.33481e-10
3.39914e-10
3.46805e-10
1.80894e-08
1.71217e-06
2.27172e-06
1.48394e-07
4.67671e-10
1.21544e-10
3.4207e-10
1.4108e-09
2.51236e-10
1.24703e-10
1.03179e-09
1.5255e-09
4.93072e-10
6.3504e-10
6.76717e-10
2.01524e-10
1.04397e-10
1.1008e-10
2.22489e-10
3.18037e-10
3.30854e-10
3.3688e-10
3.36369e-10
3.44253e-10
3.50311e-10
1.59725e-08
1.75514e-06
2.10244e-06
8.19348e-08
3.21061e-10
9.71463e-11
3.14233e-10
1.56005e-09
2.46091e-10
1.0161e-10
1.06298e-09
1.79994e-09
4.72201e-10
5.90008e-10
7.21634e-10
2.52344e-10
1.64723e-10
1.73412e-10
2.52343e-10
3.20151e-10
3.26508e-10
3.35279e-10
3.37506e-10
3.46815e-10
3.52059e-10
1.35695e-08
1.7732e-06
1.99038e-06
6.63074e-08
2.80479e-10
7.69231e-11
2.99722e-10
1.80696e-09
2.68713e-10
1.10162e-10
1.14349e-09
2.15014e-09
4.67385e-10
5.37321e-10
7.30439e-10
2.91326e-10
2.22208e-10
2.19435e-10
2.73756e-10
3.10166e-10
3.16955e-10
3.28436e-10
3.33541e-10
3.43867e-10
3.49169e-10
1.12467e-08
1.77488e-06
1.96648e-06
6.87789e-08
2.68947e-10
7.02095e-11
2.96984e-10
2.14688e-09
3.09533e-10
1.56189e-10
1.26042e-09
2.39719e-09
4.83869e-10
4.91237e-10
7.37352e-10
3.35011e-10
2.64636e-10
2.53359e-10
2.84194e-10
2.97646e-10
3.06893e-10
3.19699e-10
3.27319e-10
3.37881e-10
3.43743e-10
9.11313e-09
1.77222e-06
2.00727e-06
8.46213e-08
2.82333e-10
9.62464e-11
3.10652e-10
2.48062e-09
3.63653e-10
1.85177e-10
1.36768e-09
2.45811e-09
5.35892e-10
4.68118e-10
8.11434e-10
3.78463e-10
2.95134e-10
2.75559e-10
2.89075e-10
2.94118e-10
3.05464e-10
3.17722e-10
3.26654e-10
3.37336e-10
3.44198e-10
7.24581e-09
1.76389e-06
2.05874e-06
1.07486e-07
3.14912e-10
1.37826e-10
3.37256e-10
2.7143e-09
5.00521e-10
2.17276e-10
1.71396e-09
2.441e-09
6.40416e-10
4.84514e-10
8.92209e-10
4.15114e-10
3.16401e-10
2.89927e-10
2.98862e-10
3.01948e-10
3.15041e-10
3.26046e-10
3.36042e-10
3.4665e-10
3.54836e-10
5.69197e-09
1.74769e-06
2.07827e-06
1.20912e-07
3.85523e-10
1.74597e-10
3.85273e-10
2.98473e-09
6.02341e-10
2.52236e-10
2.12659e-09
2.47252e-09
7.89409e-10
5.40962e-10
9.38906e-10
4.51759e-10
3.35491e-10
3.02804e-10
3.13708e-10
3.16581e-10
3.3164e-10
3.4096e-10
3.51991e-10
3.62e-10
3.71708e-10
4.41346e-09
1.7267e-06
2.03994e-06
1.20431e-07
5.8602e-10
2.20182e-10
5.49235e-10
3.39696e-09
6.68892e-10
2.75181e-10
2.21807e-09
2.60963e-09
9.48665e-10
6.29245e-10
9.81048e-10
4.99817e-10
3.52765e-10
3.14526e-10
3.29859e-10
3.31832e-10
3.49434e-10
3.57113e-10
3.69617e-10
3.79414e-10
3.91288e-10
3.38632e-09
1.7514e-06
1.94824e-06
1.11358e-07
7.00536e-10
2.57495e-10
6.59314e-10
4.03867e-09
7.57012e-10
2.88736e-10
2.29736e-09
2.90194e-09
1.12992e-09
7.28522e-10
1.06625e-09
6.10565e-10
3.74418e-10
3.31021e-10
3.52966e-10
3.54327e-10
3.78152e-10
3.87009e-10
4.04554e-10
4.17835e-10
4.35031e-10
2.72791e-09
1.86508e-06
1.93409e-06
9.67961e-08
8.40182e-10
2.96115e-10
7.41431e-10
5.10101e-09
8.94239e-10
3.20368e-10
2.57059e-09
3.49049e-09
1.36039e-09
8.37047e-10
1.24398e-09
8.01393e-10
4.41e-10
3.83367e-10
4.22417e-10
4.21648e-10
4.581e-10
4.68308e-10
4.93783e-10
5.09715e-10
5.33517e-10
2.42309e-09
1.93466e-06
2.00277e-06
8.37597e-08
1.09453e-09
3.6729e-10
8.74549e-10
7.02249e-09
1.10005e-09
4.03717e-10
3.38077e-09
4.56264e-09
1.73272e-09
9.8535e-10
1.61635e-09
9.80056e-10
5.83426e-10
4.96404e-10
5.45291e-10
5.35349e-10
5.7704e-10
5.81894e-10
6.10426e-10
6.23181e-10
6.49998e-10
2.18259e-09
1.8341e-06
1.82279e-06
7.88938e-08
1.58139e-09
4.66279e-10
1.25613e-09
1.03598e-08
1.51969e-09
5.25618e-10
5.53529e-09
6.47678e-09
2.44909e-09
1.22517e-09
2.40222e-09
1.16448e-09
7.1291e-10
6.06924e-10
6.55586e-10
6.37052e-10
6.80103e-10
6.7763e-10
7.10395e-10
7.20189e-10
7.51048e-10
1.9671e-09
1.62701e-06
1.51396e-06
8.62821e-08
2.58267e-09
5.71481e-10
2.20327e-09
1.51123e-08
2.4112e-09
6.40816e-10
9.77485e-09
1.00243e-08
3.97238e-09
1.6549e-09
4.03889e-09
1.4753e-09
8.34671e-10
7.06486e-10
7.65834e-10
7.38459e-10
7.89255e-10
7.80623e-10
8.23847e-10
8.34693e-10
8.73409e-10
1.92293e-09
1.41382e-06
1.27553e-06
1.04016e-07
4.52589e-09
7.05132e-10
4.26209e-09
2.09869e-08
4.37186e-09
8.2649e-10
1.54187e-08
1.49144e-08
7.27489e-09
2.61648e-09
6.73649e-09
2.21375e-09
1.05898e-09
8.89314e-10
9.66867e-10
9.2562e-10
9.93145e-10
9.81007e-10
1.04085e-09
1.05847e-09
1.1118e-09
2.21524e-09
1.26121e-06
1.1951e-06
1.17871e-07
8.00033e-09
1.0554e-09
8.22318e-09
3.99217e-08
8.25128e-09
1.38954e-09
4.57224e-08
2.7356e-08
1.30661e-08
5.03396e-09
1.03361e-08
4.2826e-09
1.6591e-09
1.37005e-09
1.49418e-09
1.40282e-09
1.52486e-09
1.4946e-09
1.60416e-09
1.63058e-09
1.72712e-09
3.30312e-09
1.22868e-06
1.28077e-06
1.66144e-07
1.52123e-08
2.26993e-09
2.21018e-08
1.00852e-07
1.46184e-08
3.29807e-09
1.17728e-07
8.3496e-08
2.15759e-08
9.84094e-09
2.32155e-08
8.78778e-09
3.41291e-09
2.80004e-09
3.02812e-09
2.79706e-09
3.05437e-09
2.96315e-09
3.19785e-09
3.24319e-09
3.43919e-09
6.48613e-09
1.30627e-06
1.40853e-06
2.20614e-07
5.07892e-08
5.44892e-09
1.01392e-07
1.29897e-07
4.1016e-08
7.44795e-09
1.35491e-07
1.2803e-07
5.30845e-08
1.80803e-08
8.39758e-08
1.65708e-08
7.17911e-09
6.07169e-09
6.40842e-09
5.9993e-09
6.40772e-09
6.23386e-09
6.62044e-09
6.69182e-09
7.02901e-09
1.31381e-08
1.40704e-06
1.70505e-06
2.25627e-07
1.20347e-07
1.227e-08
1.36346e-07
1.32606e-07
1.13222e-07
2.0611e-08
1.36582e-07
1.33018e-07
1.19835e-07
5.80375e-08
1.30274e-07
5.59157e-08
1.50643e-08
1.2652e-08
1.29444e-08
1.21217e-08
1.27766e-08
1.24934e-08
1.31652e-08
1.3385e-08
1.40386e-08
2.91796e-08
1.68423e-06
1.82621e-06
2.25702e-07
1.36114e-07
5.41426e-08
1.37393e-07
1.32577e-07
1.3469e-07
8.60953e-08
1.36015e-07
1.33019e-07
1.34339e-07
1.20946e-07
1.34874e-07
1.2449e-07
6.03903e-08
5.10556e-08
5.04835e-08
4.69288e-08
4.8979e-08
4.79743e-08
5.03817e-08
5.17328e-08
5.40203e-08
1.18139e-07
1.82985e-06
1.838e-06
2.25424e-07
1.36422e-07
1.20471e-07
1.36554e-07
1.32344e-07
1.35563e-07
1.28587e-07
1.35266e-07
1.32713e-07
1.34719e-07
1.31569e-07
1.3451e-07
1.36442e-07
1.23574e-07
1.18116e-07
1.17553e-07
1.1576e-07
1.16661e-07
1.16176e-07
1.17284e-07
1.18015e-07
1.20573e-07
2.13202e-07
1.84682e-06
1.83395e-06
2.26392e-07
1.35702e-07
1.31092e-07
1.35706e-07
1.32122e-07
1.34976e-07
1.31829e-07
1.34618e-07
1.32436e-07
1.34173e-07
1.31909e-07
1.33921e-07
1.36167e-07
1.33167e-07
1.30836e-07
1.30782e-07
1.30671e-07
1.30718e-07
1.30686e-07
1.30751e-07
1.30847e-07
1.33003e-07
2.23686e-07
1.84281e-06
1.8288e-06
2.28397e-07
1.35022e-07
1.31451e-07
1.3491e-07
1.31905e-07
1.3432e-07
1.31757e-07
1.3401e-07
1.32173e-07
1.33626e-07
1.31719e-07
1.33375e-07
1.35294e-07
1.33221e-07
1.31383e-07
1.31372e-07
1.31365e-07
1.31363e-07
1.31361e-07
1.31363e-07
1.31416e-07
1.33449e-07
2.2172e-07
1.8377e-06
1.82319e-06
2.29354e-07
1.34353e-07
1.31317e-07
1.34192e-07
1.31713e-07
1.33708e-07
1.31552e-07
1.33432e-07
1.31932e-07
1.33142e-07
1.31516e-07
1.32889e-07
1.34541e-07
1.32816e-07
1.31281e-07
1.31273e-07
1.3127e-07
1.31266e-07
1.31262e-07
1.31259e-07
1.31307e-07
1.33292e-07
2.20267e-07
1.83233e-06
1.81696e-06
2.298e-07
1.33688e-07
1.3116e-07
1.33506e-07
1.31517e-07
1.33136e-07
1.31343e-07
1.32878e-07
1.31699e-07
1.32671e-07
1.31315e-07
1.32447e-07
1.33834e-07
1.32403e-07
1.31148e-07
1.31138e-07
1.31138e-07
1.31133e-07
1.31128e-07
1.31126e-07
1.31169e-07
1.33078e-07
2.19036e-07
1.82691e-06
1.8102e-06
2.3016e-07
1.33063e-07
1.31011e-07
1.32826e-07
1.31301e-07
1.32574e-07
1.31141e-07
1.32347e-07
1.3145e-07
1.32217e-07
1.31117e-07
1.32017e-07
1.33148e-07
1.32e-07
1.31016e-07
1.31008e-07
1.31003e-07
1.30996e-07
1.30994e-07
1.30994e-07
1.31032e-07
1.32816e-07
2.16411e-07
1.82178e-06
1.80528e-06
2.31075e-07
1.32487e-07
1.30874e-07
1.32198e-07
1.31107e-07
1.32038e-07
1.30958e-07
1.3186e-07
1.3122e-07
1.31789e-07
1.30931e-07
1.31619e-07
1.32493e-07
1.31638e-07
1.30887e-07
1.30877e-07
1.30867e-07
1.30863e-07
1.3086e-07
1.3086e-07
1.30893e-07
1.32583e-07
2.13465e-07
1.81668e-06
1.79811e-06
2.34006e-07
1.31986e-07
1.30745e-07
1.3167e-07
1.30954e-07
1.3157e-07
1.30795e-07
1.31435e-07
1.31038e-07
1.31402e-07
1.30766e-07
1.31286e-07
1.31925e-07
1.31328e-07
1.30758e-07
1.30746e-07
1.30734e-07
1.30731e-07
1.30724e-07
1.30721e-07
1.30754e-07
1.32362e-07
2.11889e-07
1.81161e-06
1.78873e-06
2.34508e-07
1.3156e-07
1.3062e-07
1.31225e-07
1.30813e-07
1.31164e-07
1.30648e-07
1.31072e-07
1.3088e-07
1.31073e-07
1.30613e-07
1.31e-07
1.31464e-07
1.31073e-07
1.30631e-07
1.30611e-07
1.30602e-07
1.30596e-07
1.30589e-07
1.30586e-07
1.30615e-07
1.32093e-07
2.09453e-07
1.80678e-06
1.77934e-06
2.33005e-07
1.31184e-07
1.30488e-07
1.30846e-07
1.30661e-07
1.30811e-07
1.30495e-07
1.30751e-07
1.30703e-07
1.30785e-07
1.30462e-07
1.30735e-07
1.31079e-07
1.30834e-07
1.30502e-07
1.30476e-07
1.30468e-07
1.3046e-07
1.30455e-07
1.30452e-07
1.30476e-07
1.31825e-07
2.06011e-07
1.80193e-06
1.77206e-06
2.25477e-07
1.30828e-07
1.30344e-07
1.30533e-07
1.30475e-07
1.30516e-07
1.3033e-07
1.30479e-07
1.30504e-07
1.30526e-07
1.30317e-07
1.30493e-07
1.3074e-07
1.30591e-07
1.3037e-07
1.30342e-07
1.30333e-07
1.30324e-07
1.3032e-07
1.30315e-07
1.30335e-07
1.31586e-07
2.03418e-07
1.7974e-06
1.7668e-06
2.04608e-07
1.30508e-07
1.30179e-07
1.30284e-07
1.30275e-07
1.30279e-07
1.30173e-07
1.30258e-07
1.30299e-07
1.30303e-07
1.30176e-07
1.3028e-07
1.30443e-07
1.30362e-07
1.30229e-07
1.30202e-07
1.30196e-07
1.30189e-07
1.30182e-07
1.30178e-07
1.30195e-07
1.31336e-07
2.00965e-07
1.79295e-06
1.76242e-06
1.85157e-07
1.30249e-07
1.30027e-07
1.30086e-07
1.30094e-07
1.30088e-07
1.30027e-07
1.30075e-07
1.3011e-07
1.30113e-07
1.3004e-07
1.30093e-07
1.30197e-07
1.30157e-07
1.30077e-07
1.30062e-07
1.30056e-07
1.3005e-07
1.30045e-07
1.30044e-07
1.30058e-07
1.31069e-07
1.97588e-07
1.78872e-06
1.75562e-06
1.73426e-07
1.30047e-07
1.29888e-07
1.2992e-07
1.2993e-07
1.29925e-07
1.29892e-07
1.29916e-07
1.29942e-07
1.29944e-07
1.29906e-07
1.29931e-07
1.29991e-07
1.29972e-07
1.2993e-07
1.29922e-07
1.29916e-07
1.29913e-07
1.2991e-07
1.29908e-07
1.29921e-07
1.30824e-07
1.94468e-07
1.78461e-06
1.74535e-06
1.68192e-07
1.29881e-07
1.29756e-07
1.29772e-07
1.2978e-07
1.29778e-07
1.29761e-07
1.29772e-07
1.29789e-07
1.2979e-07
1.29772e-07
1.29784e-07
1.29815e-07
1.29807e-07
1.29788e-07
1.29781e-07
1.29779e-07
1.29776e-07
1.29773e-07
1.29772e-07
1.29785e-07
1.30586e-07
1.91574e-07
1.78078e-06
1.73684e-06
1.65973e-07
1.29733e-07
1.29627e-07
1.29634e-07
1.29638e-07
1.29639e-07
1.29631e-07
1.29636e-07
1.29644e-07
1.29646e-07
1.29638e-07
1.29644e-07
1.29659e-07
1.29657e-07
1.29648e-07
1.29644e-07
1.29642e-07
1.29639e-07
1.29638e-07
1.29637e-07
1.29649e-07
1.30353e-07
1.88665e-07
1.77721e-06
1.73262e-06
1.65078e-07
1.29596e-07
1.29496e-07
1.295e-07
1.29501e-07
1.29504e-07
1.29501e-07
1.29502e-07
1.29505e-07
1.29507e-07
1.29505e-07
1.29507e-07
1.29514e-07
1.29514e-07
1.29509e-07
1.29508e-07
1.29507e-07
1.29504e-07
1.29504e-07
1.29504e-07
1.29513e-07
1.30133e-07
1.86008e-07
1.77377e-06
1.73053e-06
1.64691e-07
1.29462e-07
1.29366e-07
1.29369e-07
1.29368e-07
1.29371e-07
1.29368e-07
1.29369e-07
1.2937e-07
1.29372e-07
1.29372e-07
1.29372e-07
1.29376e-07
1.29375e-07
1.29373e-07
1.29375e-07
1.29372e-07
1.29372e-07
1.29371e-07
1.29371e-07
1.29377e-07
1.29929e-07
1.83835e-07
1.77047e-06
1.72835e-06
1.64488e-07
1.29329e-07
1.29236e-07
1.29238e-07
1.29236e-07
1.29238e-07
1.29236e-07
1.29238e-07
1.29238e-07
1.29238e-07
1.29238e-07
1.29239e-07
1.29241e-07
1.2924e-07
1.2924e-07
1.29241e-07
1.29239e-07
1.29241e-07
1.29239e-07
1.29238e-07
1.29243e-07
1.2973e-07
1.81948e-07
1.76737e-06
1.727e-06
1.64334e-07
1.29197e-07
1.29105e-07
1.29107e-07
1.29104e-07
1.29105e-07
1.29105e-07
1.29107e-07
1.29106e-07
1.29106e-07
1.29105e-07
1.29107e-07
1.29107e-07
1.29108e-07
1.29109e-07
1.29108e-07
1.29106e-07
1.29111e-07
1.29108e-07
1.29106e-07
1.2911e-07
1.29532e-07
1.79475e-07
1.76449e-06
1.72796e-06
1.64235e-07
1.29067e-07
1.28973e-07
1.28977e-07
1.28973e-07
1.28973e-07
1.28974e-07
1.28976e-07
1.28974e-07
1.28974e-07
1.28974e-07
1.28975e-07
1.28975e-07
1.28977e-07
1.28977e-07
1.28975e-07
1.28974e-07
1.2898e-07
1.28977e-07
1.28974e-07
1.28977e-07
1.2935e-07
1.77439e-07
1.76159e-06
1.72792e-06
1.64201e-07
1.28938e-07
1.28842e-07
1.28847e-07
1.28842e-07
1.28842e-07
1.28843e-07
1.28846e-07
1.28843e-07
1.28843e-07
1.28843e-07
1.28843e-07
1.28843e-07
1.28846e-07
1.28846e-07
1.28843e-07
1.28844e-07
1.28847e-07
1.28846e-07
1.28843e-07
1.28845e-07
1.29186e-07
1.76105e-07
1.75894e-06
1.73338e-06
1.6422e-07
1.28808e-07
1.28712e-07
1.28716e-07
1.28712e-07
1.28712e-07
1.28712e-07
1.28715e-07
1.28712e-07
1.28712e-07
1.28712e-07
1.28712e-07
1.28713e-07
1.28714e-07
1.28716e-07
1.28712e-07
1.28713e-07
1.28714e-07
1.28716e-07
1.28712e-07
1.28714e-07
1.29016e-07
1.74181e-07
1.75639e-06
1.72361e-06
1.6409e-07
1.28678e-07
1.28581e-07
1.28582e-07
1.28581e-07
1.28581e-07
1.28581e-07
1.28582e-07
1.28581e-07
1.28581e-07
1.28582e-07
1.28582e-07
1.28581e-07
1.28583e-07
1.28584e-07
1.28582e-07
1.28583e-07
1.28582e-07
1.28584e-07
1.28581e-07
1.28583e-07
1.28857e-07
1.73279e-07
1.75371e-06
1.74243e-06
1.64147e-07
1.28548e-07
1.28451e-07
1.28451e-07
1.28451e-07
1.28451e-07
1.2845e-07
1.28451e-07
1.28451e-07
1.28451e-07
1.28451e-07
1.28452e-07
1.28451e-07
1.28451e-07
1.28452e-07
1.2845e-07
1.28451e-07
1.28451e-07
1.28452e-07
1.2845e-07
1.28452e-07
1.287e-07
1.71785e-07
1.75285e-06
1.7211e-06
1.63968e-07
1.28418e-07
1.2832e-07
1.2832e-07
1.28321e-07
1.28321e-07
1.2832e-07
1.28321e-07
1.28321e-07
1.28321e-07
1.2832e-07
1.28321e-07
1.28321e-07
1.28319e-07
1.28321e-07
1.2832e-07
1.2832e-07
1.2832e-07
1.28321e-07
1.2832e-07
1.28321e-07
1.28541e-07
1.7041e-07
1.74425e-06
1.749e-06
1.64017e-07
1.28288e-07
1.2819e-07
1.2819e-07
1.2819e-07
1.2819e-07
1.28189e-07
1.2819e-07
1.28191e-07
1.28191e-07
1.2819e-07
1.28191e-07
1.28191e-07
1.28189e-07
1.2819e-07
1.2819e-07
1.2819e-07
1.2819e-07
1.28191e-07
1.2819e-07
1.28191e-07
1.28404e-07
1.7009e-07
1.75596e-06
1.72589e-06
1.63667e-07
1.28076e-07
1.27978e-07
1.27979e-07
1.27979e-07
1.27979e-07
1.27978e-07
1.2798e-07
1.27981e-07
1.27981e-07
1.2798e-07
1.27981e-07
1.27982e-07
1.2798e-07
1.27982e-07
1.27983e-07
1.27982e-07
1.27983e-07
1.27983e-07
1.27982e-07
1.27983e-07
1.28168e-07
1.68873e-07
1.73774e-06
)
;

boundaryField
{
    inlet
    {
        type            calculated;
        value           nonuniform List<scalar> 
25
(
1.72195e-08
1.72196e-08
1.72197e-08
1.72193e-08
1.72198e-08
1.72195e-08
1.72197e-08
1.72189e-08
1.72194e-08
1.72186e-08
1.72188e-08
1.72179e-08
1.72179e-08
1.72172e-08
1.72166e-08
1.72159e-08
1.72164e-08
1.7216e-08
1.72162e-08
1.72161e-08
1.72162e-08
1.72161e-08
1.72162e-08
1.72162e-08
1.72162e-08
)
;
    }
    outlet
    {
        type            calculated;
        value           nonuniform List<scalar> 
25
(
1.72502e-06
1.63584e-07
1.28011e-07
1.27913e-07
1.27914e-07
1.27914e-07
1.27914e-07
1.27913e-07
1.27915e-07
1.27916e-07
1.27916e-07
1.27915e-07
1.27916e-07
1.27917e-07
1.27915e-07
1.27917e-07
1.27918e-07
1.27917e-07
1.27918e-07
1.27918e-07
1.27917e-07
1.27918e-07
1.28103e-07
1.68788e-07
1.73686e-06
)
;
    }
    walls
    {
        type            nutkWallFunction;
        Cmu             0.09;
        kappa           0.41;
        E               9.8;
        value           uniform 1e-08;
    }
    frontAndBack
    {
        type            empty;
    }
}


// ************************************************************************* //
