/*--------------------------------*- C++ -*----------------------------------*\
  =========                 |
  \\      /  F ield         | OpenFOAM: The Open Source CFD Toolbox
   \\    /   O peration     | Website:  https://openfoam.org
    \\  /    A nd           | Version:  dev
     \\/     M anipulation  |
\*---------------------------------------------------------------------------*/
FoamFile
{
    version     2.0;
    format      ascii;
    class       volScalarField;
    location    "1";
    object      nut.water;
}
// * * * * * * * * * * * * * * * * * * * * * * * * * * * * * * * * * * * * * //

dimensions      [0 2 -1 0 0 0 0];

internalField   nonuniform List<scalar> 
1875
(
8.36946e-05
2.47531e-09
5.614e-10
5.8626e-10
5.67047e-10
5.87754e-10
5.58012e-10
6.01862e-10
5.50474e-10
5.74078e-10
5.37192e-10
5.6983e-10
5.53213e-10
5.68654e-10
5.7106e-10
5.62668e-10
5.54054e-10
5.57455e-10
5.57091e-10
5.58471e-10
5.58783e-10
5.64281e-10
5.6413e-10
1.75587e-09
8.06373e-05
9.28548e-05
1.05821e-07
2.68229e-09
2.02638e-09
2.66273e-09
3.11249e-09
2.71313e-09
2.22025e-09
2.41869e-09
3.16691e-09
3.0011e-09
2.25028e-09
2.34002e-09
2.7726e-09
2.68672e-09
2.18848e-09
2.13413e-09
2.02535e-09
1.90837e-09
1.88785e-09
1.89594e-09
1.91601e-09
1.9684e-09
7.96211e-08
0.000101196
7.06472e-05
2.02427e-07
1.27364e-08
5.08454e-09
1.39986e-08
2.67008e-08
2.13225e-08
7.24029e-09
8.59281e-09
2.4e-08
3.3291e-08
1.85565e-08
1.13378e-08
1.31821e-08
1.2609e-08
8.06088e-09
5.84563e-09
5.19016e-09
4.95817e-09
4.92519e-09
4.96258e-09
4.99085e-09
5.19818e-09
2.98963e-07
7.72e-05
2.99326e-05
3.33184e-07
8.19376e-08
1.63009e-08
1.11037e-07
1.88322e-07
1.70538e-07
3.26934e-08
3.58272e-08
1.36038e-07
1.84561e-07
1.6151e-07
8.20036e-08
7.37466e-08
7.67869e-08
5.67175e-08
2.96558e-08
1.67503e-08
1.44599e-08
1.43829e-08
1.49023e-08
1.50555e-08
1.56516e-08
4.39289e-07
5.74451e-05
2.25197e-05
1.0296e-06
1.64086e-07
6.93357e-08
1.90096e-07
1.31755e-07
1.74438e-07
1.18751e-07
1.40075e-07
1.29953e-07
9.70902e-08
1.34619e-07
1.5951e-07
1.68376e-07
1.83158e-07
1.54161e-07
1.28142e-07
7.07134e-08
5.68139e-08
5.64231e-08
5.98396e-08
6.09009e-08
6.30699e-08
8.01581e-07
4.75272e-05
1.69836e-05
1.32979e-06
1.59605e-07
1.16637e-07
9.40607e-08
2.43642e-08
4.00461e-08
1.22756e-07
1.65332e-07
4.13637e-08
2.31449e-08
4.5318e-08
1.02224e-07
1.36461e-07
1.67022e-07
1.47575e-07
1.3287e-07
1.13031e-07
1.08945e-07
1.09905e-07
1.19025e-07
1.24808e-07
1.30327e-07
1.10597e-06
4.40274e-05
1.75703e-05
1.47753e-06
7.1471e-08
1.13241e-07
2.10669e-08
1.32659e-08
1.6898e-08
9.90696e-08
1.25462e-07
2.52736e-08
1.70096e-08
3.42271e-08
5.63593e-08
6.32004e-08
5.50552e-08
7.497e-08
9.76064e-08
1.29695e-07
1.63031e-07
1.74874e-07
1.82451e-07
1.8403e-07
1.90074e-07
1.86146e-06
4.48454e-05
1.90613e-05
1.28633e-06
3.25498e-08
1.12587e-07
1.34861e-08
1.49294e-08
1.55722e-08
7.415e-08
5.55646e-08
2.19369e-08
2.0434e-08
2.91937e-08
2.66829e-08
2.26557e-08
1.75862e-08
2.25522e-08
5.64407e-08
1.10518e-07
1.66864e-07
1.92454e-07
1.95636e-07
1.92561e-07
1.95864e-07
2.60717e-06
4.96e-05
2.04226e-05
1.18313e-06
1.67134e-08
1.00053e-07
1.50232e-08
2.22559e-08
2.41164e-08
5.44765e-08
2.8979e-08
2.18604e-08
2.56506e-08
3.14801e-08
2.26627e-08
1.62089e-08
1.16313e-08
1.31877e-08
2.70677e-08
8.90229e-08
1.58461e-07
1.82576e-07
1.75883e-07
1.61815e-07
1.36972e-07
4.41884e-06
6.44063e-05
2.7778e-05
1.38534e-06
2.22873e-08
5.4178e-08
1.80255e-08
1.8272e-08
2.39727e-08
3.89043e-08
2.18453e-08
1.70725e-08
2.09867e-08
2.87015e-08
2.48095e-08
2.58804e-08
1.20316e-08
1.08356e-08
1.59901e-08
5.60455e-08
1.18733e-07
1.1605e-07
7.6989e-08
5.53495e-08
8.8034e-08
8.38406e-06
9.3075e-05
3.30407e-05
1.86039e-06
2.71319e-07
3.46064e-08
1.28548e-08
1.80563e-08
2.17328e-08
3.26347e-08
1.61227e-08
1.68265e-08
2.08684e-08
2.20787e-08
2.66957e-08
3.12005e-08
1.31245e-08
8.81943e-09
1.10059e-08
2.50165e-08
4.40632e-08
3.39091e-08
2.43302e-08
2.087e-08
1.20983e-07
1.74463e-05
0.000120818
3.08803e-05
3.03061e-06
7.27126e-07
4.92349e-08
1.40998e-08
2.50859e-08
2.61909e-08
2.33719e-08
1.36738e-08
2.26291e-08
2.02522e-08
1.77686e-08
2.47052e-08
2.09218e-08
7.81604e-09
6.14332e-09
9.26352e-09
1.42315e-08
1.93183e-08
1.66413e-08
1.51281e-08
2.16455e-08
5.10215e-07
4.19971e-05
0.000139845
2.55286e-05
1.46538e-05
9.40919e-07
4.3478e-08
1.89721e-08
3.43638e-08
1.52672e-08
1.57661e-08
2.33765e-08
3.039e-08
1.74212e-08
1.45827e-08
2.7158e-08
1.24183e-08
8.33342e-09
7.80045e-09
8.73192e-09
1.00205e-08
1.27688e-08
1.30859e-08
1.36835e-08
4.13393e-08
2.62019e-06
7.68486e-05
0.00015177
2.88902e-05
3.68444e-05
5.05656e-07
2.3981e-08
2.75189e-08
2.77427e-08
8.99336e-09
1.35254e-08
4.48963e-08
2.78989e-08
1.17867e-08
1.24033e-08
2.72072e-08
1.18196e-08
9.89604e-09
8.20946e-09
7.62987e-09
9.07524e-09
1.13024e-08
1.21905e-08
1.37231e-08
1.45006e-07
1.08125e-05
0.000112852
0.000159937
3.97449e-05
3.29544e-05
5.84231e-07
1.64526e-08
3.23967e-08
2.56367e-08
7.90837e-09
1.42082e-08
4.53546e-08
2.61366e-08
1.11368e-08
1.02156e-08
2.59359e-08
1.05334e-08
9.20404e-09
7.98115e-09
7.55544e-09
9.1382e-09
1.03447e-08
1.08395e-08
1.27008e-08
2.77242e-07
2.08459e-05
0.000133584
0.000165454
6.92374e-05
3.51611e-05
1.69865e-06
1.50832e-08
3.17144e-08
3.2816e-08
9.59955e-09
1.42583e-08
4.07043e-08
2.73034e-08
1.18039e-08
1.08747e-08
2.60355e-08
9.71108e-09
8.25455e-09
7.58405e-09
8.06328e-09
9.25612e-09
9.28567e-09
9.14914e-09
1.07942e-08
2.64811e-07
2.56165e-05
0.000126004
0.000156076
9.7349e-05
6.77389e-05
4.30038e-06
1.24803e-08
3.20693e-08
3.89122e-08
1.16927e-08
1.3957e-08
4.19091e-08
2.85873e-08
1.3229e-08
1.35734e-08
2.52918e-08
9.14952e-09
7.76285e-09
7.54384e-09
8.2831e-09
9.15191e-09
8.48888e-09
8.2441e-09
8.90561e-09
9.56708e-08
1.98898e-05
7.73853e-05
8.84783e-05
0.000107043
9.94468e-05
7.91424e-06
1.17269e-08
2.84272e-08
4.60515e-08
1.66767e-08
1.41829e-08
4.29349e-08
3.07141e-08
1.46461e-08
1.68304e-08
2.55029e-08
8.87424e-09
7.60933e-09
7.45152e-09
8.20889e-09
9.01051e-09
8.24946e-09
8.03556e-09
8.24992e-09
1.1999e-08
3.09162e-06
1.95489e-05
2.90662e-05
0.000116016
0.000117124
1.1363e-05
1.45249e-08
2.70245e-08
4.69093e-08
2.05397e-08
1.4738e-08
4.47766e-08
3.30322e-08
1.65702e-08
1.86973e-08
2.47539e-08
8.58253e-09
7.36733e-09
7.28967e-09
7.67162e-09
8.45925e-09
8.34258e-09
8.18544e-09
8.31599e-09
7.63366e-09
4.03083e-08
2.38947e-06
1.3026e-05
0.000129876
0.000128983
1.42994e-05
2.23792e-08
2.64741e-08
5.17053e-08
2.07466e-08
1.63177e-08
4.61535e-08
3.4768e-08
1.98146e-08
2.02402e-08
2.37471e-08
7.95932e-09
7.13784e-09
6.98149e-09
7.21188e-09
7.58584e-09
8.18748e-09
8.12563e-09
7.80493e-09
7.30061e-09
7.99244e-09
3.74862e-07
9.49366e-06
0.000148858
0.00013006
1.40089e-05
2.95874e-08
2.63045e-08
5.37804e-08
2.1263e-08
1.73711e-08
4.78277e-08
3.6808e-08
2.24538e-08
2.21781e-08
2.20948e-08
7.47441e-09
7.01047e-09
6.79155e-09
6.96124e-09
7.01265e-09
7.39844e-09
7.91226e-09
7.31497e-09
7.2895e-09
7.15387e-09
2.14237e-07
1.61853e-05
0.000168301
0.000125059
1.3177e-05
3.38833e-08
2.6274e-08
5.5916e-08
2.23161e-08
1.78008e-08
4.95692e-08
3.90995e-08
2.44593e-08
2.35242e-08
2.02036e-08
7.01118e-09
6.93938e-09
6.6206e-09
6.74359e-09
6.72276e-09
6.89448e-09
7.11512e-09
7.01567e-09
7.23051e-09
7.03654e-09
2.13792e-07
2.42595e-05
0.000179748
0.000115427
1.03916e-05
3.57607e-08
2.54713e-08
5.97988e-08
2.3148e-08
1.73732e-08
5.06556e-08
4.26724e-08
2.59274e-08
2.49532e-08
1.90642e-08
6.6801e-09
6.65582e-09
6.38476e-09
6.37513e-09
6.43695e-09
6.60967e-09
6.83299e-09
6.77047e-09
7.14397e-09
6.83433e-09
2.56737e-07
3.41335e-05
0.000183368
0.000101938
7.38003e-06
3.33182e-08
2.41238e-08
6.26206e-08
2.23301e-08
1.62353e-08
5.11918e-08
4.58311e-08
2.68813e-08
2.64321e-08
1.85739e-08
6.24243e-09
6.27566e-09
6.09603e-09
6.04064e-09
6.66323e-09
7.71897e-09
8.49428e-09
7.81592e-09
8.40182e-09
7.84885e-09
3.84836e-07
4.42744e-05
0.000182347
8.36168e-05
4.08681e-06
2.44718e-08
2.3209e-08
6.47161e-08
2.02533e-08
1.50056e-08
5.36789e-08
5.09426e-08
2.75953e-08
2.83943e-08
1.92306e-08
5.98662e-09
5.99357e-09
6.07388e-09
6.02714e-09
8.95981e-09
1.16927e-08
1.30729e-08
1.17866e-08
1.245e-08
1.20407e-08
5.88309e-07
5.71643e-05
0.000172966
5.96698e-05
1.58476e-06
1.60859e-08
2.27285e-08
6.55266e-08
1.79407e-08
1.34859e-08
5.55772e-08
5.61934e-08
2.75681e-08
3.06628e-08
2.10016e-08
5.70021e-09
5.713e-09
5.88507e-09
6.00637e-09
1.25974e-08
1.48362e-08
1.58251e-08
1.50061e-08
1.53775e-08
1.52802e-08
8.0379e-07
7.04167e-05
0.000145644
3.35289e-05
3.85523e-07
1.11027e-08
2.15375e-08
6.5558e-08
1.56726e-08
1.03969e-08
5.47971e-08
6.20953e-08
2.70489e-08
3.23282e-08
2.50704e-08
5.88307e-09
5.24584e-09
5.3559e-09
6.41628e-09
1.44004e-08
1.6197e-08
1.66843e-08
1.62881e-08
1.65743e-08
1.68598e-08
9.16924e-07
8.01177e-05
0.000126079
1.59888e-05
7.55741e-08
8.57942e-09
1.95824e-08
6.6558e-08
1.38007e-08
7.52843e-09
5.26301e-08
6.76497e-08
2.59264e-08
3.27392e-08
2.95027e-08
7.2512e-09
4.74924e-09
4.77516e-09
8.47701e-09
1.5238e-08
1.6503e-08
1.68014e-08
1.66306e-08
1.69513e-08
1.72949e-08
9.02111e-07
8.53858e-05
0.000113409
7.4089e-06
2.33524e-08
6.07031e-09
1.70799e-08
6.97288e-08
1.25435e-08
6.22731e-09
5.1514e-08
7.38246e-08
2.46129e-08
3.16974e-08
3.37751e-08
1.00573e-08
5.21029e-09
5.49388e-09
1.11039e-08
1.58729e-08
1.65126e-08
1.68133e-08
1.67878e-08
1.71813e-08
1.74836e-08
7.9717e-07
8.75977e-05
0.000105042
4.09168e-06
1.60439e-08
4.85507e-09
1.57023e-08
7.48843e-08
1.22957e-08
5.07725e-09
5.31105e-08
8.04864e-08
2.35882e-08
2.94708e-08
3.60425e-08
1.2602e-08
8.22642e-09
8.6602e-09
1.26027e-08
1.599e-08
1.63081e-08
1.67464e-08
1.68578e-08
1.73229e-08
1.75849e-08
6.77781e-07
8.85694e-05
9.95205e-05
3.29279e-06
1.40258e-08
3.84678e-09
1.49881e-08
8.09891e-08
1.34357e-08
5.50802e-09
5.71742e-08
8.6275e-08
2.33529e-08
2.68577e-08
3.65031e-08
1.45597e-08
1.11054e-08
1.09666e-08
1.36826e-08
1.55031e-08
1.58433e-08
1.64175e-08
1.66732e-08
1.71895e-08
1.74547e-08
5.62218e-07
8.87252e-05
9.84013e-05
3.29986e-06
1.34586e-08
3.51326e-09
1.48618e-08
8.70225e-08
1.5488e-08
7.81438e-09
6.3067e-08
8.89433e-08
2.40179e-08
2.45402e-08
3.57906e-08
1.67569e-08
1.32368e-08
1.26726e-08
1.42161e-08
1.48895e-08
1.53529e-08
1.59938e-08
1.63756e-08
1.69041e-08
1.71976e-08
4.55935e-07
8.86653e-05
0.00010052
3.66776e-06
1.41386e-08
4.81929e-09
1.55568e-08
9.23789e-08
1.78732e-08
9.27134e-09
6.83116e-08
8.82563e-08
2.55631e-08
2.31935e-08
3.46755e-08
1.8947e-08
1.47755e-08
1.37953e-08
1.44728e-08
1.47255e-08
1.52943e-08
1.59082e-08
1.63559e-08
1.68909e-08
1.72348e-08
3.62814e-07
8.83222e-05
0.000103179
4.12951e-06
1.57821e-08
6.9061e-09
1.69019e-08
9.73094e-08
2.0147e-08
1.08872e-08
7.3284e-08
8.64257e-08
2.77486e-08
2.32211e-08
3.38857e-08
2.08e-08
1.58546e-08
1.45277e-08
1.4976e-08
1.51307e-08
1.57874e-08
1.63389e-08
1.68403e-08
1.7372e-08
1.77825e-08
2.85253e-07
8.75649e-05
0.000104243
4.3876e-06
1.84504e-08
8.75562e-09
1.9067e-08
1.04958e-07
2.1969e-08
1.265e-08
7.77751e-08
8.56911e-08
3.06955e-08
2.39445e-08
3.38946e-08
2.2627e-08
1.68264e-08
1.51866e-08
1.5734e-08
1.58779e-08
1.66337e-08
1.7101e-08
1.76544e-08
1.81556e-08
1.8642e-08
2.21334e-07
8.60396e-05
0.000102377
4.29083e-06
2.15799e-08
1.10514e-08
2.14358e-08
1.14032e-07
2.38591e-08
1.38125e-08
7.86231e-08
8.60724e-08
3.46299e-08
2.50342e-08
3.4777e-08
2.45565e-08
1.77065e-08
1.57844e-08
1.65536e-08
1.66486e-08
1.7523e-08
1.78925e-08
1.84988e-08
1.89525e-08
1.95191e-08
1.68707e-07
8.3339e-05
9.69641e-05
3.89151e-06
2.47548e-08
1.29173e-08
2.3636e-08
1.21666e-07
2.65638e-08
1.44619e-08
7.77661e-08
8.6535e-08
4.02976e-08
2.68727e-08
3.66315e-08
2.71195e-08
1.86719e-08
1.64717e-08
1.7466e-08
1.74469e-08
1.8451e-08
1.87342e-08
1.93919e-08
1.98037e-08
2.04599e-08
1.27652e-07
7.91766e-05
8.85949e-05
3.21865e-06
2.79997e-08
1.42494e-08
2.57792e-08
1.26129e-07
3.01972e-08
1.55116e-08
7.68809e-08
8.70782e-08
4.73187e-08
2.99797e-08
3.92787e-08
3.07538e-08
2.02351e-08
1.75944e-08
1.88121e-08
1.86147e-08
1.97601e-08
1.9967e-08
2.07049e-08
2.10813e-08
2.18517e-08
9.87682e-08
7.359e-05
7.80057e-05
2.4677e-06
3.15708e-08
1.57566e-08
2.78017e-08
1.29092e-07
3.41985e-08
1.71333e-08
7.86001e-08
8.74305e-08
5.60474e-08
3.45224e-08
4.25631e-08
3.52981e-08
2.26644e-08
1.94542e-08
2.08755e-08
2.04796e-08
2.17712e-08
2.18643e-08
2.27542e-08
2.31119e-08
2.40142e-08
8.05044e-08
6.64943e-05
6.60044e-05
1.81356e-06
3.57419e-08
1.76084e-08
3.15894e-08
1.32508e-07
3.98899e-08
1.94424e-08
8.44177e-08
8.89314e-08
6.61948e-08
4.01981e-08
4.60369e-08
4.07491e-08
2.57183e-08
2.1967e-08
2.3612e-08
2.29627e-08
2.44351e-08
2.43327e-08
2.54572e-08
2.57775e-08
2.68525e-08
7.02956e-08
5.7758e-05
5.29007e-05
1.33628e-06
4.09254e-08
2.04671e-08
3.67547e-08
1.33163e-07
4.68262e-08
2.27368e-08
9.42073e-08
9.22634e-08
7.7455e-08
4.63994e-08
4.99526e-08
4.67345e-08
2.9211e-08
2.48625e-08
2.67904e-08
2.58948e-08
2.75224e-08
2.72109e-08
2.85838e-08
2.88841e-08
3.01376e-08
6.62357e-08
4.74023e-05
3.89776e-05
9.83725e-07
4.66408e-08
2.38111e-08
4.31821e-08
1.36827e-07
5.51416e-08
2.66569e-08
1.01879e-07
9.89329e-08
9.11053e-08
5.39939e-08
5.45777e-08
5.38704e-08
3.32419e-08
2.8456e-08
3.04938e-08
2.94486e-08
3.11384e-08
3.07489e-08
3.22383e-08
3.25677e-08
3.39771e-08
6.72907e-08
3.59519e-05
2.56575e-05
7.74047e-07
5.69334e-08
2.82344e-08
5.56943e-08
2.30091e-07
6.70126e-08
3.21909e-08
2.62387e-07
1.58625e-07
1.06742e-07
6.44522e-08
6.50234e-08
6.30791e-08
3.85011e-08
3.31181e-08
3.54015e-08
3.39619e-08
3.59355e-08
3.53136e-08
3.70628e-08
3.72788e-08
3.9011e-08
7.35286e-08
2.46381e-05
1.51581e-05
9.59731e-07
9.0443e-08
3.49316e-08
1.28086e-07
5.70054e-07
9.10382e-08
3.99661e-08
6.64845e-07
4.72483e-07
1.35343e-07
7.76361e-08
1.33559e-07
7.33062e-08
4.55284e-08
3.94361e-08
4.19741e-08
4.0166e-08
4.24066e-08
4.15514e-08
4.35425e-08
4.37042e-08
4.57072e-08
8.42452e-08
1.52235e-05
9.94167e-06
1.24885e-06
2.88844e-07
4.37739e-08
5.73711e-07
7.33723e-07
2.35016e-07
5.157e-08
7.65329e-07
7.23281e-07
3.04681e-07
1.0974e-07
4.75301e-07
1.01479e-07
5.48862e-08
4.79549e-08
5.05313e-08
4.84417e-08
5.08221e-08
4.98272e-08
5.20077e-08
5.22087e-08
5.44743e-08
1.00016e-07
1.01261e-05
9.9346e-06
1.27582e-06
6.80865e-07
7.31757e-08
7.70912e-07
7.49717e-07
6.40967e-07
1.1922e-07
7.72203e-07
7.52055e-07
6.78508e-07
3.30598e-07
7.36631e-07
3.18732e-07
8.95094e-08
7.57404e-08
7.76335e-08
7.31175e-08
7.68174e-08
7.5246e-08
7.89927e-08
8.01384e-08
8.39589e-08
1.73575e-07
9.8967e-06
1.03562e-05
1.27732e-06
7.70341e-07
3.07562e-07
7.77548e-07
7.50293e-07
7.62303e-07
4.87868e-07
7.69756e-07
7.52797e-07
7.60323e-07
6.84764e-07
7.63299e-07
7.04864e-07
3.43114e-07
2.90271e-07
2.87121e-07
2.6704e-07
2.78652e-07
2.7297e-07
2.86581e-07
2.9419e-07
3.07182e-07
6.71394e-07
1.03873e-05
1.04127e-05
1.277e-06
7.7282e-07
6.82532e-07
7.73565e-07
7.49717e-07
7.67952e-07
7.28452e-07
7.6627e-07
7.5181e-07
7.63175e-07
7.45336e-07
7.61988e-07
7.7294e-07
7.00139e-07
6.6923e-07
6.66058e-07
6.55914e-07
6.61014e-07
6.58266e-07
6.64539e-07
6.68671e-07
6.83166e-07
1.20796e-06
1.04632e-05
1.03995e-05
1.28376e-06
7.69502e-07
7.43362e-07
7.69524e-07
7.49199e-07
7.65384e-07
7.47541e-07
7.63353e-07
7.50982e-07
7.6083e-07
7.47997e-07
7.59405e-07
7.72142e-07
7.5513e-07
7.41909e-07
7.41603e-07
7.40972e-07
7.41238e-07
7.41057e-07
7.41427e-07
7.41969e-07
7.54198e-07
1.26841e-06
1.04497e-05
1.03806e-05
1.29641e-06
7.66402e-07
7.46132e-07
7.65771e-07
7.48714e-07
7.62418e-07
7.47872e-07
7.60662e-07
7.50235e-07
7.58484e-07
7.47658e-07
7.57059e-07
7.67948e-07
7.56183e-07
7.45746e-07
7.45688e-07
7.45645e-07
7.45636e-07
7.4562e-07
7.45635e-07
7.45932e-07
7.57476e-07
1.25852e-06
1.04311e-05
1.0359e-05
1.30314e-06
7.63362e-07
7.46112e-07
7.62451e-07
7.48364e-07
7.59699e-07
7.47447e-07
7.5813e-07
7.49609e-07
7.56482e-07
7.47247e-07
7.55047e-07
7.64431e-07
7.54632e-07
7.45909e-07
7.45863e-07
7.45847e-07
7.45824e-07
7.45801e-07
7.45783e-07
7.46054e-07
7.57334e-07
1.25151e-06
1.04109e-05
1.03338e-05
1.30697e-06
7.60339e-07
7.45964e-07
7.59305e-07
7.47991e-07
7.572e-07
7.47003e-07
7.55732e-07
7.49026e-07
7.54558e-07
7.46845e-07
7.53284e-07
7.61169e-07
7.53031e-07
7.45895e-07
7.45838e-07
7.45836e-07
7.45807e-07
7.45779e-07
7.4577e-07
7.4601e-07
7.56871e-07
1.24575e-06
1.03904e-05
1.03056e-05
1.31032e-06
7.57536e-07
7.45854e-07
7.5619e-07
7.47504e-07
7.54753e-07
7.46597e-07
7.53462e-07
7.48356e-07
7.52721e-07
7.46458e-07
7.51582e-07
7.58022e-07
7.51488e-07
7.45886e-07
7.45835e-07
7.45811e-07
7.45771e-07
7.45758e-07
7.45758e-07
7.45971e-07
7.5613e-07
1.23204e-06
1.03716e-05
1.02878e-05
1.31684e-06
7.55006e-07
7.45815e-07
7.53362e-07
7.47145e-07
7.52449e-07
7.46296e-07
7.51438e-07
7.47789e-07
7.51031e-07
7.46143e-07
7.5006e-07
7.55043e-07
7.50169e-07
7.45888e-07
7.45835e-07
7.45777e-07
7.45752e-07
7.45736e-07
7.45735e-07
7.45927e-07
7.55555e-07
1.21648e-06
1.03528e-05
1.02572e-05
1.33487e-06
7.52902e-07
7.45826e-07
7.51099e-07
7.47015e-07
7.5053e-07
7.46109e-07
7.49761e-07
7.47493e-07
7.49573e-07
7.45941e-07
7.48907e-07
7.52553e-07
7.4915e-07
7.45899e-07
7.45826e-07
7.45759e-07
7.45741e-07
7.45702e-07
7.45688e-07
7.45875e-07
7.55047e-07
1.2087e-06
1.03342e-05
1.02139e-05
1.33907e-06
7.51223e-07
7.45856e-07
7.49308e-07
7.46954e-07
7.4896e-07
7.46016e-07
7.48432e-07
7.47339e-07
7.48439e-07
7.45811e-07
7.48024e-07
7.5067e-07
7.48442e-07
7.45919e-07
7.45801e-07
7.4575e-07
7.45719e-07
7.45678e-07
7.45661e-07
7.45825e-07
7.54266e-07
1.196e-06
1.03169e-05
1.01704e-05
1.33181e-06
7.49819e-07
7.45846e-07
7.47889e-07
7.46831e-07
7.47688e-07
7.45886e-07
7.47349e-07
7.47075e-07
7.4754e-07
7.45694e-07
7.47254e-07
7.49222e-07
7.47822e-07
7.45926e-07
7.45775e-07
7.45727e-07
7.45683e-07
7.45657e-07
7.45637e-07
7.45775e-07
7.53485e-07
1.17752e-06
1.02995e-05
1.01389e-05
1.29007e-06
7.48535e-07
7.45762e-07
7.46845e-07
7.46516e-07
7.46751e-07
7.45688e-07
7.46539e-07
7.46679e-07
7.46809e-07
7.45608e-07
7.46618e-07
7.4803e-07
7.47179e-07
7.45914e-07
7.45751e-07
7.45699e-07
7.45652e-07
7.45626e-07
7.45598e-07
7.45716e-07
7.5287e-07
1.16386e-06
1.02839e-05
1.01189e-05
1.17184e-06
7.47451e-07
7.45565e-07
7.46167e-07
7.46117e-07
7.46142e-07
7.45529e-07
7.4602e-07
7.46254e-07
7.46274e-07
7.45552e-07
7.46146e-07
7.47081e-07
7.46613e-07
7.45853e-07
7.45698e-07
7.45663e-07
7.45623e-07
7.45582e-07
7.45562e-07
7.45657e-07
7.52191e-07
1.15097e-06
1.02687e-05
1.01039e-05
1.0615e-06
7.46717e-07
7.4544e-07
7.45779e-07
7.45823e-07
7.45791e-07
7.45441e-07
7.45714e-07
7.45915e-07
7.45933e-07
7.45514e-07
7.45822e-07
7.46414e-07
7.46187e-07
7.45728e-07
7.45641e-07
7.45609e-07
7.45572e-07
7.45546e-07
7.45538e-07
7.45618e-07
7.51413e-07
1.13277e-06
1.02547e-05
1.0075e-05
9.95245e-07
7.46303e-07
7.4539e-07
7.45572e-07
7.45633e-07
7.45604e-07
7.45411e-07
7.45554e-07
7.457e-07
7.45714e-07
7.45491e-07
7.45637e-07
7.45981e-07
7.45872e-07
7.45633e-07
7.45585e-07
7.45554e-07
7.45533e-07
7.45517e-07
7.45506e-07
7.45582e-07
7.50761e-07
1.116e-06
1.02414e-05
1.00262e-05
9.66176e-07
7.46097e-07
7.45382e-07
7.45471e-07
7.45518e-07
7.45507e-07
7.4541e-07
7.45473e-07
7.45568e-07
7.45577e-07
7.45471e-07
7.45543e-07
7.45717e-07
7.45672e-07
7.45562e-07
7.45526e-07
7.4551e-07
7.45495e-07
7.4548e-07
7.45471e-07
7.45545e-07
7.50148e-07
1.10049e-06
1.02297e-05
9.98732e-06
9.54384e-07
7.45997e-07
7.45385e-07
7.45428e-07
7.45451e-07
7.45456e-07
7.4541e-07
7.45437e-07
7.45486e-07
7.45496e-07
7.45449e-07
7.45485e-07
7.45569e-07
7.45557e-07
7.45506e-07
7.45483e-07
7.45474e-07
7.45456e-07
7.45451e-07
7.45447e-07
7.45513e-07
7.49562e-07
1.08487e-06
1.02194e-05
9.97304e-06
9.50195e-07
7.45956e-07
7.45384e-07
7.45408e-07
7.45413e-07
7.45429e-07
7.45409e-07
7.45415e-07
7.45435e-07
7.45447e-07
7.45433e-07
7.45444e-07
7.45489e-07
7.45484e-07
7.45458e-07
7.45454e-07
7.45445e-07
7.4543e-07
7.45427e-07
7.4543e-07
7.4548e-07
7.49052e-07
1.07067e-06
1.02099e-05
9.97104e-06
9.48919e-07
7.45936e-07
7.45384e-07
7.45401e-07
7.45395e-07
7.4541e-07
7.45397e-07
7.45403e-07
7.45408e-07
7.45416e-07
7.45416e-07
7.45418e-07
7.45441e-07
7.45434e-07
7.45424e-07
7.45433e-07
7.4542e-07
7.45418e-07
7.45411e-07
7.45412e-07
7.45449e-07
7.48626e-07
1.05923e-06
1.02012e-05
9.9685e-06
9.48704e-07
7.45923e-07
7.45385e-07
7.45396e-07
7.45387e-07
7.45394e-07
7.45387e-07
7.45396e-07
7.45395e-07
7.45399e-07
7.45397e-07
7.45403e-07
7.45413e-07
7.45409e-07
7.45407e-07
7.45415e-07
7.45403e-07
7.45416e-07
7.45401e-07
7.45397e-07
7.45424e-07
7.48235e-07
1.04941e-06
1.01936e-05
9.97077e-06
9.48775e-07
7.45913e-07
7.45381e-07
7.45394e-07
7.45376e-07
7.45379e-07
7.4538e-07
7.45391e-07
7.45385e-07
7.45385e-07
7.45381e-07
7.45391e-07
7.45394e-07
7.45398e-07
7.45401e-07
7.45396e-07
7.45387e-07
7.45415e-07
7.45397e-07
7.45384e-07
7.45407e-07
7.47845e-07
1.03619e-06
1.01872e-05
9.98637e-06
9.49157e-07
7.45916e-07
7.45369e-07
7.45394e-07
7.45369e-07
7.4537e-07
7.45373e-07
7.45388e-07
7.45376e-07
7.45376e-07
7.45373e-07
7.45382e-07
7.45381e-07
7.45392e-07
7.45395e-07
7.4538e-07
7.45377e-07
7.45408e-07
7.45393e-07
7.45377e-07
7.45394e-07
7.47551e-07
1.02547e-06
1.01807e-05
9.99624e-06
9.49922e-07
7.45921e-07
7.45365e-07
7.45395e-07
7.45368e-07
7.45365e-07
7.45369e-07
7.45386e-07
7.4537e-07
7.45371e-07
7.45369e-07
7.45371e-07
7.45373e-07
7.45388e-07
7.4539e-07
7.45372e-07
7.45376e-07
7.45397e-07
7.45389e-07
7.45373e-07
7.45384e-07
7.47354e-07
1.01879e-06
1.01757e-05
1.0038e-05
9.50992e-07
7.45923e-07
7.45365e-07
7.45388e-07
7.45367e-07
7.45364e-07
7.45366e-07
7.45382e-07
7.45367e-07
7.45369e-07
7.45368e-07
7.45367e-07
7.45371e-07
7.45378e-07
7.45388e-07
7.45368e-07
7.45373e-07
7.4538e-07
7.45387e-07
7.45367e-07
7.45376e-07
7.47128e-07
1.00868e-06
1.01712e-05
9.99149e-06
9.51202e-07
7.45926e-07
7.45362e-07
7.45369e-07
7.45364e-07
7.45359e-07
7.45363e-07
7.45369e-07
7.45362e-07
7.45363e-07
7.45366e-07
7.45366e-07
7.45365e-07
7.45372e-07
7.45382e-07
7.45365e-07
7.45371e-07
7.45369e-07
7.45381e-07
7.45362e-07
7.45372e-07
7.46965e-07
1.00447e-06
1.0166e-05
1.01108e-05
9.52494e-07
7.45928e-07
7.4536e-07
7.45361e-07
7.45362e-07
7.45361e-07
7.4536e-07
7.45363e-07
7.45364e-07
7.45363e-07
7.45362e-07
7.45366e-07
7.45363e-07
7.45363e-07
7.45369e-07
7.4536e-07
7.45364e-07
7.45363e-07
7.45369e-07
7.45357e-07
7.45367e-07
7.46806e-07
9.96817e-07
1.01713e-05
9.99719e-06
9.52423e-07
7.45928e-07
7.45359e-07
7.4536e-07
7.45362e-07
7.45362e-07
7.45356e-07
7.45362e-07
7.45365e-07
7.45365e-07
7.45359e-07
7.45366e-07
7.45363e-07
7.45355e-07
7.45362e-07
7.4536e-07
7.45357e-07
7.45361e-07
7.45363e-07
7.45356e-07
7.45363e-07
7.46641e-07
9.8984e-07
1.01317e-05
1.01696e-05
9.53675e-07
7.45928e-07
7.45357e-07
7.45359e-07
7.45361e-07
7.45362e-07
7.45356e-07
7.45362e-07
7.45365e-07
7.45365e-07
7.45359e-07
7.45365e-07
7.45363e-07
7.45355e-07
7.45362e-07
7.45361e-07
7.45357e-07
7.4536e-07
7.45362e-07
7.45357e-07
7.45363e-07
7.46606e-07
9.88987e-07
1.02101e-05
1.00454e-05
9.5261e-07
7.45452e-07
7.44881e-07
7.44887e-07
7.44889e-07
7.44891e-07
7.44882e-07
7.44894e-07
7.44898e-07
7.449e-07
7.44894e-07
7.449e-07
7.44905e-07
7.44894e-07
7.44906e-07
7.4491e-07
7.44905e-07
7.44911e-07
7.44913e-07
7.44908e-07
7.44913e-07
7.45992e-07
9.82912e-07
1.01144e-05
)
;

boundaryField
{
    inlet
    {
        type            calculated;
        value           uniform 8.4375e-07;
    }
    outlet
    {
        type            calculated;
        value           nonuniform List<scalar> 
25
(
1.00454e-05
9.5261e-07
7.45452e-07
7.44881e-07
7.44887e-07
7.44889e-07
7.44891e-07
7.44882e-07
7.44894e-07
7.44898e-07
7.449e-07
7.44894e-07
7.449e-07
7.44905e-07
7.44894e-07
7.44906e-07
7.4491e-07
7.44905e-07
7.44911e-07
7.44913e-07
7.44908e-07
7.44913e-07
7.45992e-07
9.82912e-07
1.01144e-05
)
;
    }
    walls
    {
        type            nutkWallFunction;
        Cmu             0.09;
        kappa           0.41;
        E               9.8;
        value           nonuniform List<scalar> 
150
(
1.72723e-05
1.94551e-05
1.82525e-05
1.47078e-05
1.39301e-05
1.28796e-05
1.30117e-05
1.31891e-05
1.34704e-05
1.45053e-05
1.52969e-05
1.51706e-05
1.47665e-05
1.5318e-05
1.64779e-05
1.89728e-05
2.08906e-05
2.14994e-05
2.20069e-05
2.2641e-05
2.33464e-05
2.40504e-05
2.44565e-05
2.47542e-05
2.48028e-05
2.38877e-05
2.06021e-05
1.8117e-05
1.66216e-05
1.57599e-05
1.5245e-05
1.50144e-05
1.49754e-05
1.49609e-05
1.481e-05
1.43683e-05
1.35968e-05
1.25087e-05
1.11406e-05
9.55041e-06
7.78784e-06
5.94166e-06
4.11077e-06
2.53058e-06
1.48964e-06
1.10301e-06
1.03426e-06
1.01954e-06
1.01655e-06
1.0141e-06
1.01112e-06
1.0079e-06
1.00488e-06
1.00203e-06
9.98386e-07
9.93917e-07
9.89176e-07
9.85302e-07
9.82648e-07
9.80932e-07
9.79103e-07
9.76891e-07
9.75589e-07
9.7531e-07
9.75357e-07
9.7557e-07
9.7607e-07
9.77131e-07
9.78008e-07
9.79098e-07
9.79733e-07
9.80767e-07
9.80998e-07
9.8178e-07
9.82399e-07
1.72778e-05
2.01097e-05
1.84996e-05
1.68108e-05
1.60868e-05
1.56771e-05
1.57361e-05
1.60974e-05
1.72111e-05
1.93029e-05
2.14096e-05
2.29352e-05
2.38413e-05
2.43424e-05
2.4688e-05
2.38563e-05
1.82518e-05
1.27306e-05
1.04704e-05
9.81138e-06
1.10649e-05
1.19763e-05
1.26298e-05
1.31874e-05
1.39735e-05
1.46934e-05
1.51173e-05
1.52513e-05
1.52042e-05
1.50474e-05
1.48316e-05
1.45781e-05
1.42716e-05
1.38984e-05
1.34293e-05
1.28319e-05
1.20766e-05
1.11544e-05
1.00487e-05
8.74129e-06
7.24945e-06
5.63785e-06
4.0112e-06
2.55894e-06
1.54767e-06
1.12908e-06
1.04546e-06
1.02735e-06
1.02369e-06
1.02126e-06
1.01876e-06
1.01629e-06
1.01399e-06
1.01172e-06
1.0095e-06
1.00744e-06
1.00536e-06
1.00353e-06
1.00174e-06
1.00009e-06
9.98532e-07
9.97175e-07
9.95983e-07
9.94855e-07
9.93856e-07
9.92974e-07
9.92208e-07
9.91492e-07
9.90861e-07
9.90403e-07
9.89882e-07
9.89496e-07
9.89107e-07
9.8899e-07
9.88327e-07
)
;
    }
    frontAndBack
    {
        type            empty;
    }
}


// ************************************************************************* //
