/*--------------------------------*- C++ -*----------------------------------*\
  =========                 |
  \\      /  F ield         | OpenFOAM: The Open Source CFD Toolbox
   \\    /   O peration     | Website:  https://openfoam.org
    \\  /    A nd           | Version:  dev
     \\/     M anipulation  |
\*---------------------------------------------------------------------------*/
FoamFile
{
    version     2.0;
    format      ascii;
    class       volScalarField;
    location    "1";
    object      p;
}
// * * * * * * * * * * * * * * * * * * * * * * * * * * * * * * * * * * * * * //

dimensions      [1 -1 -2 0 0 0 0];

internalField   nonuniform List<scalar> 
1875
(
106551
106552
106552
106550
106553
106551
106552
106548
106550
106545
106547
106542
106541
106536
106533
106529
106532
106530
106531
106530
106531
106530
106531
106531
106531
106469
106470
106469
106467
106469
106467
106469
106465
106469
106463
106465
106460
106460
106454
106452
106448
106451
106448
106449
106449
106449
106449
106449
106449
106449
106411
106412
106412
106411
106412
106411
106413
106410
106412
106408
106409
106406
106403
106398
106396
106391
106392
106391
106392
106391
106391
106391
106391
106391
106391
106337
106337
106339
106337
106338
106337
106340
106336
106338
106332
106334
106332
106330
106324
106322
106319
106318
106318
106318
106318
106319
106318
106319
106319
106319
106279
106277
106280
106279
106280
106279
106281
106280
106279
106272
106275
106273
106270
106264
106263
106260
106259
106259
106260
106260
106260
106260
106260
106260
106260
106208
106206
106209
106207
106208
106206
106209
106209
106205
106198
106198
106199
106195
106190
106187
106187
106186
106186
106187
106187
106188
106188
106188
106188
106188
106149
106148
106149
106147
106145
106144
106147
106150
106145
106136
106134
106135
106131
106125
106124
106123
106123
106122
106125
106125
106126
106125
106126
106125
106125
106079
106077
106079
106077
106070
106070
106073
106078
106073
106065
106061
106063
106059
106051
106050
106048
106049
106049
106052
106053
106054
106054
106055
106055
106055
106018
106016
106019
106017
106011
106005
106012
106013
106013
106002
106000
105997
106000
105983
105987
105980
105984
105983
105987
105987
105989
105989
105989
105989
105989
105949
105946
105948
105950
105949
105944
105942
105942
105948
105940
105928
105922
105928
105905
105906
105901
105908
105909
105915
105917
105918
105918
105919
105919
105919
105888
105887
105884
105888
105893
105889
105879
105865
105891
105871
105865
105838
105867
105827
105831
105826
105836
105840
105846
105848
105850
105851
105851
105851
105851
105821
105820
105817
105814
105834
105806
105793
105791
105823
105779
105778
105750
105785
105734
105729
105738
105757
105768
105776
105778
105780
105781
105782
105781
105779
105757
105757
105757
105748
105770
105738
105724
105722
105750
105712
105691
105689
105697
105666
105655
105668
105687
105697
105705
105708
105711
105712
105713
105713
105713
105683
105684
105688
105679
105683
105667
105657
105657
105651
105632
105627
105628
105626
105612
105608
105613
105624
105632
105635
105639
105640
105640
105641
105644
105645
105611
105613
105617
105608
105606
105599
105583
105584
105578
105570
105563
105569
105560
105560
105553
105556
105560
105565
105565
105568
105567
105569
105571
105576
105578
105533
105531
105538
105523
105529
105519
105513
105514
105505
105505
105498
105506
105497
105497
105494
105493
105494
105496
105496
105496
105497
105499
105501
105504
105509
105447
105441
105458
105440
105450
105445
105446
105448
105442
105442
105434
105441
105433
105433
105429
105429
105428
105429
105429
105430
105431
105431
105432
105430
105441
105359
105351
105373
105362
105372
105375
105379
105383
105376
105377
105368
105374
105364
105365
105362
105362
105362
105361
105363
105363
105365
105363
105365
105356
105370
105287
105282
105296
105301
105300
105312
105310
105323
105310
105309
105302
105305
105296
105295
105295
105295
105296
105295
105298
105298
105300
105298
105298
105292
105298
105219
105218
105224
105238
105228
105245
105240
105254
105240
105240
105236
105235
105225
105225
105227
105228
105229
105229
105232
105233
105234
105233
105235
105231
105234
105154
105158
105156
105173
105157
105178
105172
105182
105171
105171
105167
105165
105155
105157
105159
105160
105162
105164
105165
105167
105169
105169
105171
105169
105171
105086
105091
105088
105104
105087
105105
105103
105106
105100
105099
105097
105093
105086
105087
105091
105091
105094
105096
105099
105102
105104
105105
105107
105106
105108
105018
105021
105019
105032
105019
105029
105034
105027
105029
105025
105027
105022
105019
105018
105022
105022
105026
105029
105032
105036
105038
105041
105042
105044
105044
104948
104949
104949
104956
104952
104949
104962
104944
104957
104950
104956
104950
104951
104947
104953
104951
104955
104961
104967
104973
104974
104978
104978
104982
104981
104878
104878
104878
104878
104883
104869
104888
104859
104883
104874
104884
104879
104884
104878
104884
104881
104885
104895
104904
104911
104914
104917
104918
104920
104916
104806
104804
104804
104792
104811
104786
104809
104774
104806
104798
104812
104808
104814
104809
104814
104811
104813
104826
104835
104842
104846
104849
104849
104849
104845
104736
104728
104726
104702
104733
104703
104729
104692
104728
104723
104739
104738
104746
104744
104746
104744
104744
104753
104760
104765
104770
104771
104772
104771
104769
104661
104649
104642
104612
104647
104623
104647
104616
104647
104649
104664
104668
104675
104678
104677
104675
104679
104679
104684
104686
104689
104689
104690
104689
104688
104579
104568
104556
104534
104561
104549
104569
104548
104569
104577
104589
104596
104604
104612
104608
104609
104609
104606
104606
104606
104607
104607
104607
104607
104606
104496
104487
104476
104464
104478
104478
104492
104483
104492
104504
104512
104521
104530
104542
104540
104542
104536
104531
104527
104526
104524
104524
104523
104523
104523
104415
104410
104403
104399
104402
104409
104416
104418
104416
104430
104433
104442
104450
104464
104464
104465
104456
104451
104445
104443
104441
104440
104439
104438
104438
104334
104334
104329
104333
104328
104338
104339
104350
104340
104352
104351
104359
104365
104376
104377
104378
104369
104366
104360
104358
104355
104354
104353
104352
104352
104254
104257
104254
104265
104253
104264
104260
104275
104260
104270
104266
104273
104276
104285
104283
104285
104278
104277
104272
104271
104268
104267
104266
104265
104265
104171
104176
104175
104193
104175
104184
104175
104191
104176
104184
104178
104184
104184
104191
104189
104191
104186
104186
104182
104182
104179
104178
104177
104177
104176
104085
104091
104089
104109
104090
104098
104087
104101
104087
104094
104088
104093
104092
104097
104094
104097
104094
104094
104091
104091
104089
104088
104087
104087
104086
103996
104001
103999
104016
103999
104008
103996
104008
103996
104002
103996
104001
103998
104003
104000
104003
104000
104001
103998
103999
103996
103996
103995
103995
103994
103904
103907
103906
103919
103905
103914
103902
103913
103902
103908
103901
103906
103902
103907
103905
103908
103905
103907
103904
103905
103903
103903
103902
103902
103901
103810
103813
103810
103820
103809
103818
103807
103817
103810
103814
103807
103810
103806
103811
103808
103812
103809
103811
103809
103810
103808
103809
103808
103808
103807
103714
103716
103713
103722
103713
103721
103712
103722
103714
103720
103707
103711
103707
103712
103711
103714
103713
103715
103713
103714
103712
103713
103712
103712
103711
103618
103619
103614
103624
103610
103623
103611
103625
103622
103632
103603
103612
103607
103612
103612
103616
103615
103617
103615
103616
103615
103616
103615
103615
103615
103520
103518
103517
103521
103518
103520
103519
103523
103522
103523
103516
103524
103501
103512
103513
103517
103516
103518
103517
103518
103517
103517
103517
103517
103516
103423
103416
103417
103422
103419
103419
103419
103422
103421
103420
103419
103421
103413
103414
103415
103417
103417
103418
103418
103419
103418
103418
103418
103418
103418
103320
103317
103317
103318
103318
103318
103318
103319
103319
103318
103318
103317
103315
103315
103316
103318
103316
103318
103317
103318
103317
103318
103317
103318
103317
103217
103217
103216
103217
103217
103217
103217
103217
103217
103216
103216
103216
103215
103215
103215
103216
103216
103217
103217
103217
103217
103217
103217
103217
103216
103115
103115
103115
103115
103115
103115
103115
103115
103115
103114
103114
103114
103114
103114
103114
103114
103115
103115
103115
103115
103115
103115
103115
103115
103115
103013
103013
103013
103013
103013
103013
103013
103013
103013
103012
103012
103012
103012
103012
103012
103013
103013
103013
103013
103013
103013
103013
103013
103013
103013
102911
102911
102911
102911
102911
102911
102911
102911
102910
102910
102910
102910
102910
102910
102910
102910
102911
102911
102911
102911
102911
102911
102911
102911
102911
102809
102809
102809
102809
102809
102808
102808
102808
102808
102808
102808
102808
102808
102808
102808
102808
102808
102809
102809
102809
102809
102809
102809
102809
102809
102706
102706
102706
102706
102706
102706
102706
102706
102706
102706
102706
102706
102706
102706
102706
102706
102706
102706
102706
102707
102707
102707
102707
102707
102707
102604
102604
102604
102604
102604
102604
102604
102604
102604
102604
102604
102604
102604
102604
102604
102604
102604
102604
102604
102604
102604
102604
102604
102604
102604
102502
102502
102502
102502
102502
102502
102502
102502
102502
102502
102502
102502
102502
102502
102502
102502
102502
102502
102502
102502
102502
102502
102502
102502
102502
102400
102400
102400
102400
102400
102400
102400
102400
102400
102400
102400
102400
102400
102400
102400
102400
102400
102400
102400
102400
102400
102400
102400
102400
102400
102298
102298
102298
102298
102298
102298
102298
102298
102298
102298
102298
102298
102298
102298
102298
102298
102298
102298
102298
102298
102298
102298
102298
102298
102298
102196
102196
102196
102196
102196
102196
102196
102196
102196
102196
102196
102196
102196
102196
102196
102196
102196
102196
102196
102196
102196
102196
102196
102196
102196
102094
102094
102094
102094
102094
102094
102094
102094
102094
102094
102094
102094
102094
102094
102094
102094
102094
102094
102094
102094
102094
102094
102094
102094
102094
101992
101992
101992
101992
101992
101992
101992
101992
101992
101992
101992
101992
101992
101992
101992
101992
101992
101992
101992
101992
101992
101992
101992
101992
101992
101889
101889
101889
101889
101889
101889
101889
101889
101889
101889
101889
101889
101889
101889
101889
101889
101889
101889
101889
101889
101889
101889
101889
101889
101889
101787
101787
101787
101787
101787
101787
101787
101787
101787
101787
101787
101787
101787
101787
101787
101787
101787
101787
101787
101787
101787
101787
101787
101787
101787
101685
101685
101685
101685
101685
101685
101685
101685
101685
101685
101685
101685
101685
101685
101685
101685
101685
101685
101685
101685
101685
101685
101685
101685
101685
101583
101583
101583
101583
101583
101583
101583
101583
101583
101583
101583
101583
101583
101583
101583
101583
101583
101583
101583
101583
101583
101583
101583
101583
101583
101481
101481
101481
101481
101481
101481
101481
101481
101481
101481
101481
101481
101481
101481
101481
101481
101481
101481
101481
101481
101481
101481
101481
101481
101481
101379
101379
101379
101379
101379
101379
101379
101379
101379
101379
101379
101379
101379
101379
101379
101379
101379
101379
101379
101379
101379
101379
101379
101379
101379
101277
101277
101277
101277
101277
101277
101277
101277
101277
101277
101277
101277
101277
101277
101277
101277
101277
101277
101277
101277
101277
101277
101277
101277
101277
101175
101175
101175
101175
101175
101175
101175
101175
101175
101175
101175
101175
101175
101175
101175
101175
101175
101175
101175
101175
101175
101175
101175
101175
101175
101072
101072
101072
101072
101072
101072
101072
101072
101072
101072
101072
101072
101072
101072
101072
101072
101072
101072
101072
101072
101072
101072
101072
101072
101072
100970
100970
100970
100970
100970
100970
100970
100970
100970
100970
100970
100970
100970
100970
100970
100970
100970
100970
100970
100970
100970
100970
100970
100970
100970
100868
100868
100868
100868
100868
100868
100868
100868
100868
100868
100868
100868
100868
100868
100868
100868
100868
100868
100868
100868
100868
100868
100868
100868
100868
100766
100766
100766
100766
100766
100766
100766
100766
100766
100766
100766
100766
100766
100766
100766
100766
100766
100766
100766
100766
100766
100766
100766
100766
100766
100664
100664
100664
100664
100664
100664
100664
100664
100664
100664
100664
100664
100664
100664
100664
100664
100664
100664
100664
100664
100664
100664
100664
100664
100664
100562
100562
100562
100562
100562
100562
100562
100562
100562
100562
100562
100562
100562
100562
100562
100562
100562
100562
100562
100562
100562
100562
100562
100562
100562
100460
100460
100460
100460
100460
100460
100460
100460
100460
100460
100460
100460
100460
100460
100460
100460
100460
100460
100460
100460
100460
100460
100460
100460
100460
100357
100357
100357
100357
100357
100357
100357
100357
100357
100357
100357
100357
100357
100357
100357
100357
100357
100357
100357
100357
100357
100357
100357
100357
100357
100255
100255
100255
100255
100255
100255
100255
100255
100255
100255
100255
100255
100255
100255
100255
100255
100255
100255
100255
100255
100255
100255
100255
100255
100255
100153
100153
100153
100153
100153
100153
100153
100153
100153
100153
100153
100153
100153
100153
100153
100153
100153
100153
100153
100153
100153
100153
100153
100153
100153
100051
100051
100051
100051
100051
100051
100051
100051
100051
100051
100051
100051
100051
100051
100051
100051
100051
100051
100051
100051
100051
100051
100051
100051
100051
)
;

boundaryField
{
    inlet
    {
        type            calculated;
        value           nonuniform List<scalar> 
25
(
106547
106548
106549
106546
106549
106547
106549
106544
106547
106542
106543
106538
106537
106533
106529
106525
106528
106526
106527
106526
106527
106527
106527
106527
106527
)
;
    }
    outlet
    {
        type            calculated;
        value           uniform 100000;
    }
    walls
    {
        type            calculated;
        value           nonuniform List<scalar> 
150
(
106551
106469
106411
106337
106279
106208
106149
106079
106018
105949
105888
105821
105757
105683
105611
105533
105447
105359
105287
105219
105154
105086
105018
104948
104878
104806
104736
104661
104579
104496
104415
104334
104254
104171
104085
103996
103904
103810
103714
103618
103520
103423
103320
103217
103115
103013
102911
102809
102706
102604
102502
102400
102298
102196
102094
101992
101889
101787
101685
101583
101481
101379
101277
101175
101072
100970
100868
100766
100664
100562
100460
100357
100255
100153
100051
106531
106449
106391
106319
106260
106188
106125
106055
105989
105919
105851
105779
105713
105645
105578
105509
105441
105370
105298
105234
105171
105108
105044
104981
104916
104845
104769
104688
104606
104523
104438
104352
104265
104176
104086
103994
103901
103807
103711
103615
103516
103418
103317
103216
103115
103013
102911
102809
102707
102604
102502
102400
102298
102196
102094
101992
101889
101787
101685
101583
101481
101379
101277
101175
101072
100970
100868
100766
100664
100562
100460
100357
100255
100153
100051
)
;
    }
    frontAndBack
    {
        type            empty;
    }
}


// ************************************************************************* //
