/*--------------------------------*- C++ -*----------------------------------*\
  =========                 |
  \\      /  F ield         | OpenFOAM: The Open Source CFD Toolbox
   \\    /   O peration     | Website:  https://openfoam.org
    \\  /    A nd           | Version:  dev
     \\/     M anipulation  |
\*---------------------------------------------------------------------------*/
FoamFile
{
    version     2.0;
    format      ascii;
    class       volScalarField;
    location    "1";
    object      p_rgh;
}
// * * * * * * * * * * * * * * * * * * * * * * * * * * * * * * * * * * * * * //

dimensions      [1 -1 -2 0 0 0 0];

internalField   nonuniform List<scalar> 
1875
(
106593
106592
106593
106591
106593
106591
106593
106589
106591
106586
106587
106582
106582
106577
106574
106570
106573
106571
106572
106571
106572
106572
106572
106572
106572
106572
106572
106568
106569
106568
106566
106568
106567
106570
106560
106562
106558
106559
106553
106552
106549
106554
106550
106550
106549
106550
106550
106551
106551
106552
106574
106579
106573
106572
106573
106572
106574
106572
106575
106570
106571
106568
106566
106559
106556
106545
106554
106553
106553
106552
106553
106552
106553
106553
106553
106564
106566
106564
106563
106560
106563
106566
106563
106566
106559
106562
106561
106559
106551
106548
106533
106539
106544
106545
106544
106545
106545
106546
106546
106546
106570
106563
106573
106573
106560
106567
106575
106573
106573
106564
106570
106570
106566
106559
106557
106536
106543
106552
106555
106553
106554
106554
106554
106554
106554
106563
106548
106568
106566
106549
106548
106568
106569
106566
106548
106554
106561
106556
106550
106545
106523
106526
106542
106550
106549
106549
106549
106549
106549
106549
106571
106552
106575
106573
106549
106547
106571
106582
106572
106549
106549
106563
106557
106549
106529
106522
106522
106540
106557
106556
106557
106555
106555
106554
106554
106568
106543
106571
106569
106536
106536
106554
106578
106563
106542
106538
106557
106546
106531
106510
106506
106510
106527
106550
106553
106554
106552
106552
106551
106552
106574
106544
106576
106575
106540
106532
106567
106587
106565
106542
106563
106569
106562
106519
106507
106502
106505
106520
106550
106554
106555
106555
106555
106555
106555
106570
106537
106563
106574
106539
106544
106583
106586
106567
106561
106593
106578
106591
106532
106490
106480
106491
106506
106544
106550
106552
106552
106552
106552
106551
106574
106539
106536
106578
106554
106618
106607
106576
106576
106605
106628
106558
106630
106559
106472
106471
106480
106496
106540
106548
106550
106550
106551
106551
106540
106573
106538
106531
106557
106607
106666
106591
106537
106613
106642
106615
106504
106625
106515
106435
106440
106463
106487
106537
106545
106547
106547
106548
106541
106508
106575
106541
106557
106550
106723
106710
106565
106532
106718
106680
106585
106505
106620
106499
106419
106436
106454
106483
106534
106541
106544
106545
106540
106518
106490
106564
106537
106650
106561
106758
106716
106555
106549
106732
106670
106567
106510
106625
106508
106437
106440
106454
106494
106530
106538
106540
106521
106511
106499
106484
106544
106581
106747
106590
106762
106734
106525
106555
106746
106647
106541
106517
106633
106520
106442
106447
106458
106500
106516
106529
106506
106489
106490
106494
106479
106510
106665
106793
106580
106763
106749
106521
106559
106753
106634
106527
106532
106642
106509
106445
106443
106466
106495
106490
106486
106470
106465
106462
106484
106473
106485
106678
106807
106548
106752
106782
106524
106565
106780
106640
106530
106569
106645
106496
106441
106442
106453
106484
106465
106457
106457
106452
106445
106467
106508
106459
106631
106804
106536
106732
106825
106568
106579
106809
106665
106530
106608
106639
106481
106437
106434
106436
106467
106453
106451
106453
106442
106439
106452
106619
106452
106587
106793
106542
106727
106870
106646
106621
106829
106692
106541
106638
106635
106461
106430
106431
106430
106439
106452
106452
106454
106437
106434
106437
106675
106445
106579
106778
106555
106724
106901
106688
106664
106851
106728
106593
106660
106624
106420
106425
106422
106426
106426
106449
106450
106446
106431
106432
106428
106685
106444
106588
106785
106567
106722
106936
106710
106696
106882
106780
106664
106687
106610
106416
106417
106419
106419
106422
106427
106447
106429
106428
106430
106428
106696
106439
106594
106803
106576
106719
106978
106731
106699
106914
106839
106725
106717
106601
106405
106411
106408
106415
106414
106419
106425
106424
106425
106427
106426
106708
106434
106613
106827
106582
106724
107024
106759
106689
106950
106905
106783
106754
106605
106399
106402
106404
106405
106410
106414
106418
106420
106422
106423
106425
106746
106427
106648
106853
106589
106741
107061
106787
106665
106984
106972
106846
106800
106614
106389
106396
106391
106398
106403
106419
106436
106420
106428
106422
106490
106811
106420
106702
106877
106589
106780
107088
106811
106624
107016
107033
106915
106855
106637
106382
106387
106386
106388
106451
106539
106578
106529
106548
106535
106668
106886
106411
106778
106894
106568
106826
107110
106822
106566
107036
107089
106982
106918
106679
106375
106380
106374
106379
106621
106738
106786
106741
106764
106760
106856
106947
106485
106898
106911
106523
106858
107133
106827
106483
107040
107141
107045
106989
106759
106379
106372
106371
106380
106775
106877
106921
106910
106929
106938
106970
106994
106703
107033
106921
106436
106864
107158
106838
106386
107028
107188
107100
107061
106879
106430
106366
106363
106466
106851
106942
106979
106990
107006
107018
107021
107032
106925
107136
106886
106324
106856
107193
106878
106346
107018
107236
107148
107126
107021
106557
106365
106378
106634
106922
106982
107010
107026
107041
107052
107049
107067
107043
107194
106827
106294
106850
107234
106947
106344
107025
107282
107191
107179
107148
106757
106494
106541
106822
106990
107017
107038
107052
107066
107074
107072
107101
107094
107234
106819
106291
106865
107281
107048
106371
107067
107328
107232
107224
107240
106974
106780
106832
106984
107047
107053
107069
107080
107092
107098
107098
107136
107125
107278
106866
106289
106918
107329
107171
106534
107155
107372
107269
107259
107303
107127
107029
107060
107087
107092
107091
107104
107111
107123
107126
107128
107171
107155
107326
106997
106369
107021
107378
107283
106809
107258
107410
107306
107288
107348
107202
107143
107159
107141
107132
107132
107143
107148
107157
107160
107163
107206
107185
107374
107169
106626
107162
107424
107358
107044
107343
107443
107342
107316
107386
107240
107185
107196
107176
107173
107174
107184
107188
107196
107198
107201
107243
107215
107415
107316
106949
107293
107465
107406
107178
107404
107473
107377
107346
107420
107272
107212
107223
107212
107215
107218
107226
107230
107237
107239
107242
107280
107248
107449
107409
107174
107383
107499
107440
107242
107451
107499
107412
107378
107453
107307
107244
107254
107252
107259
107263
107270
107273
107279
107281
107283
107318
107288
107477
107464
107278
107440
107528
107468
107282
107490
107524
107445
107411
107483
107348
107285
107292
107297
107303
107308
107313
107317
107322
107324
107326
107356
107336
107505
107502
107326
107480
107551
107494
107320
107524
107547
107479
107444
107511
107392
107333
107337
107344
107348
107353
107357
107361
107365
107367
107368
107394
107387
107532
107532
107362
107516
107571
107519
107366
107552
107568
107506
107476
107536
107436
107383
107383
107391
107393
107398
107401
107404
107407
107409
107410
107432
107439
107557
107553
107405
107542
107585
107539
107418
107579
107593
107528
107506
107555
107476
107431
107430
107436
107437
107441
107443
107446
107449
107450
107451
107469
107488
107574
107573
107452
107572
107592
107566
107471
107592
107594
107563
107545
107565
107513
107476
107475
107479
107479
107483
107484
107486
107488
107489
107490
107504
107532
107587
107586
107504
107588
107598
107583
107519
107599
107599
107583
107565
107587
107547
107518
107516
107518
107518
107521
107521
107523
107525
107525
107526
107536
107562
107597
107595
107543
107597
107600
107593
107556
107601
107600
107593
107581
107595
107574
107552
107551
107552
107552
107553
107554
107554
107556
107556
107557
107563
107584
107599
107598
107574
107599
107599
107598
107583
107600
107599
107597
107592
107597
107590
107578
107577
107577
107577
107578
107578
107578
107579
107579
107580
107583
107595
107599
107598
107592
107598
107598
107598
107595
107598
107598
107598
107596
107597
107596
107592
107591
107592
107591
107592
107592
107592
107592
107592
107593
107594
107597
107597
107597
107596
107597
107597
107597
107597
107597
107597
107597
107596
107596
107596
107596
107596
107596
107596
107596
107596
107596
107596
107596
107596
107597
107596
107596
107596
107596
107596
107596
107596
107596
107596
107596
107595
107595
107595
107595
107595
107596
107596
107596
107596
107596
107596
107596
107596
107596
107596
107595
107595
107595
107595
107595
107594
107594
107594
107594
107594
107594
107594
107594
107594
107594
107594
107594
107595
107595
107595
107595
107595
107595
107595
107595
107593
107593
107593
107593
107593
107593
107593
107593
107593
107593
107593
107593
107593
107593
107593
107593
107593
107593
107593
107593
107593
107593
107593
107593
107593
107592
107592
107592
107592
107592
107592
107592
107592
107592
107592
107592
107592
107592
107592
107592
107592
107592
107592
107592
107592
107592
107592
107592
107592
107592
107590
107590
107590
107590
107590
107590
107590
107590
107590
107590
107590
107590
107590
107590
107590
107590
107590
107590
107590
107591
107591
107591
107591
107591
107591
107589
107589
107589
107589
107589
107589
107589
107589
107589
107589
107589
107589
107589
107589
107589
107589
107589
107589
107589
107589
107589
107589
107589
107589
107589
107588
107588
107588
107588
107588
107588
107588
107588
107588
107588
107588
107588
107588
107588
107588
107588
107588
107588
107588
107588
107588
107588
107588
107588
107588
107586
107586
107586
107586
107586
107586
107586
107586
107586
107586
107586
107586
107586
107586
107586
107586
107586
107586
107586
107586
107586
107586
107586
107586
107586
107585
107585
107585
107585
107585
107585
107585
107585
107585
107585
107585
107585
107585
107585
107585
107585
107585
107585
107585
107585
107585
107585
107585
107585
107585
107584
107584
107584
107584
107584
107584
107584
107584
107584
107584
107584
107584
107584
107584
107584
107584
107584
107584
107584
107584
107584
107584
107584
107584
107584
107582
107582
107582
107582
107582
107582
107582
107582
107582
107582
107582
107582
107582
107582
107582
107582
107582
107582
107582
107582
107582
107582
107582
107582
107582
107581
107581
107581
107581
107581
107581
107581
107581
107581
107581
107581
107581
107581
107581
107581
107581
107581
107581
107581
107581
107581
107581
107581
107581
107581
107580
107580
107580
107580
107580
107580
107579
107580
107579
107580
107580
107580
107580
107580
107580
107580
107580
107580
107580
107580
107580
107580
107580
107580
107580
107578
107578
107578
107578
107578
107578
107578
107578
107578
107578
107578
107578
107578
107578
107578
107578
107578
107578
107578
107578
107578
107578
107578
107578
107578
107577
107577
107577
107577
107577
107577
107577
107577
107577
107577
107577
107577
107577
107577
107577
107577
107577
107577
107577
107577
107577
107577
107577
107577
107577
107575
107575
107575
107575
107575
107575
107575
107575
107575
107575
107575
107575
107575
107575
107575
107575
107575
107575
107575
107575
107575
107575
107575
107575
107575
107574
107574
107574
107574
107574
107574
107574
107574
107574
107574
107574
107574
107574
107574
107574
107574
107574
107574
107574
107574
107574
107574
107574
107574
107574
107573
107573
107573
107573
107573
107573
107573
107573
107573
107573
107573
107573
107573
107573
107573
107573
107573
107573
107573
107573
107573
107573
107573
107573
107573
107571
107571
107571
107571
107571
107571
107571
107571
107571
107571
107571
107571
107571
107571
107571
107571
107571
107571
107571
107571
107571
107571
107571
107571
107571
107570
107570
107570
107570
107570
107570
107570
107570
107570
107570
107570
107570
107570
107570
107570
107570
107570
107570
107570
107570
107570
107570
107570
107570
107570
107569
107569
107569
107569
107569
107569
107569
107569
107569
107569
107569
107569
107569
107569
107569
107569
107569
107569
107569
107569
107569
107569
107569
107569
107569
107567
107567
107567
107567
107567
107567
107567
107567
107567
107567
107567
107567
107567
107567
107567
107567
107567
107567
107567
107567
107567
107567
107567
107567
107567
107566
107566
107566
107566
107566
107566
107566
107566
107566
107566
107566
107566
107566
107566
107566
107566
107566
107566
107566
107566
107566
107566
107566
107566
107566
107564
107564
107564
107564
107564
107564
107564
107564
107564
107564
107564
107564
107564
107564
107564
107564
107564
107564
107564
107564
107564
107564
107564
107564
107564
107563
107563
107563
107563
107563
107563
107563
107563
107563
107563
107563
107563
107563
107563
107563
107563
107563
107563
107563
107563
107563
107563
107563
107563
107563
107562
107562
107562
107562
107562
107562
107562
107562
107562
107562
107562
107562
107562
107562
107562
107562
107562
107562
107562
107562
107562
107562
107562
107562
107562
107560
107560
107560
107560
107560
107560
107560
107560
107560
107560
107560
107560
107560
107560
107560
107560
107560
107560
107560
107560
107560
107560
107560
107560
107560
107559
107559
107559
107559
107559
107559
107559
107559
107559
107559
107559
107559
107559
107559
107559
107559
107559
107559
107559
107559
107559
107559
107559
107559
107559
107558
107558
107558
107558
107558
107558
107558
107558
107558
107558
107558
107558
107558
107558
107558
107558
107558
107558
107558
107558
107558
107558
107558
107558
107558
)
;

boundaryField
{
    inlet
    {
        type            fixedFluxPressure;
        gradient        nonuniform List<scalar> 
25
(
-9022.52
-8816.67
-8826.67
-9003.42
-8813.01
-8754.45
-8883.19
-8984.24
-8840.84
-8767.4
-8767.81
-8962.89
-8826.49
-8702.72
-8973.8
-9058.83
-9058.83
-9058.83
-9058.83
-9058.83
-9058.83
-9058.83
-9058.83
-9058.83
-9058.83
)
;
        value           nonuniform List<scalar> 
25
(
106547
106548
106549
106546
106549
106547
106549
106544
106547
106542
106543
106538
106537
106533
106529
106525
106528
106526
106527
106526
106527
106527
106527
106527
106527
)
;
    }
    outlet
    {
        type            prghPressure;
        p               uniform 100000;
        value           uniform 107557;
    }
    walls
    {
        type            fixedFluxPressure;
        gradient        nonuniform List<scalar> 
150
(
1.39243
0
0
0
0
0
0
0
0
0
0
0
0
0
0
0
0
0
0
0
0
0
1.00374e-10
0
0
0
0
0
0
0
0
0
0
0
0
0
0
0
0
0
0
0
0
-1.94057e-10
0
0
0
0
0
0
0
0
0
0
0
0
0
0
0
0
0
0
0
0
0
0
0
0
0
0
0
0
0
0
0
0
0
0
0
0
0
0
0
0
0
0
0
0
0
0
0
0
0
0
0
0
0
0
0
0
0
0
0
0
0
0
1.40524e-10
0
0
0
0
0
0
0
0
0
1.85134e-10
0
0
0
0
0
0
0
0
0
0
0
0
0
0
0
0
0
0
0
0
0
0
0
0
0
0
0
0
0
0
0
0
0
)
;
        value           nonuniform List<scalar> 
150
(
106593
106572
106574
106564
106570
106563
106571
106568
106574
106570
106574
106573
106575
106564
106544
106510
106485
106459
106452
106445
106444
106439
106434
106427
106420
106411
106485
106703
106925
107043
107094
107125
107155
107185
107215
107248
107288
107336
107387
107439
107488
107532
107562
107584
107595
107597
107596
107595
107593
107592
107590
107589
107588
107586
107585
107584
107582
107581
107580
107578
107577
107575
107574
107573
107571
107570
107569
107567
107566
107564
107563
107562
107560
107559
107558
106572
106552
106553
106546
106554
106549
106554
106552
106555
106551
106540
106508
106490
106484
106479
106473
106508
106619
106675
106685
106696
106708
106746
106811
106886
106947
106994
107032
107067
107101
107136
107171
107206
107243
107280
107318
107356
107394
107432
107469
107504
107536
107563
107583
107594
107597
107596
107595
107593
107592
107591
107589
107588
107586
107585
107584
107582
107581
107580
107578
107577
107575
107574
107573
107571
107570
107569
107567
107566
107564
107563
107562
107560
107559
107558
)
;
    }
    frontAndBack
    {
        type            empty;
    }
}


// ************************************************************************* //
