/*--------------------------------*- C++ -*----------------------------------*\
  =========                 |
  \\      /  F ield         | OpenFOAM: The Open Source CFD Toolbox
   \\    /   O peration     | Website:  https://openfoam.org
    \\  /    A nd           | Version:  dev
     \\/     M anipulation  |
\*---------------------------------------------------------------------------*/
FoamFile
{
    version     2.0;
    format      ascii;
    class       surfaceScalarField;
    location    "1";
    object      phi.air;
}
// * * * * * * * * * * * * * * * * * * * * * * * * * * * * * * * * * * * * * //

dimensions      [0 3 -1 0 0 0 0];

internalField   nonuniform List<scalar> 
3650
(
-2.49899e-07
4.11525e-05
-4.77783e-08
3.99907e-05
1.06542e-07
4.02468e-05
-2.62286e-07
4.12232e-05
-1.33163e-07
4.03261e-05
3.23877e-07
3.95313e-05
7.14093e-07
3.99792e-05
6.12468e-07
4.04318e-05
9.0614e-07
4.01209e-05
1.05593e-06
3.97644e-05
1.54104e-06
3.95019e-05
1.73722e-06
3.99306e-05
2.34875e-06
3.94965e-05
2.77934e-06
3.98219e-05
2.99862e-06
4.03128e-05
2.86022e-06
4.11687e-05
3.01208e-06
4.10442e-05
2.87861e-06
4.13148e-05
2.56322e-06
4.1692e-05
2.19742e-06
4.17939e-05
1.84481e-06
4.18209e-05
1.45268e-06
4.18626e-05
1.11601e-06
4.17983e-05
6.82195e-07
4.18855e-05
4.21648e-05
-3.74191e-07
2.98015e-05
-7.03883e-09
2.82547e-05
5.80609e-07
2.80856e-05
-4.73887e-07
3.05162e-05
6.11202e-08
2.82586e-05
1.96243e-06
2.61086e-05
3.82019e-06
2.64523e-05
3.56799e-06
2.9127e-05
4.06292e-06
2.82224e-05
5.35419e-06
2.69955e-05
8.10083e-06
2.53418e-05
9.81973e-06
2.64671e-05
1.07435e-05
2.69812e-05
1.14661e-05
2.73028e-05
1.11308e-05
2.87778e-05
9.04207e-06
3.15392e-05
7.99377e-06
3.05248e-05
7.33041e-06
3.00674e-05
6.21852e-06
3.08176e-05
4.87299e-06
3.11839e-05
3.55211e-06
3.11608e-05
2.37586e-06
3.10483e-05
1.23881e-06
3.09584e-05
2.90757e-07
3.08482e-05
3.0484e-05
-1.17809e-06
3.0116e-05
-1.59686e-06
2.81226e-05
-7.68175e-07
2.64398e-05
-1.23417e-06
2.99137e-05
-2.87534e-07
2.65664e-05
2.15455e-06
2.29883e-05
4.7431e-06
2.30058e-05
4.7222e-06
2.81926e-05
4.84857e-06
2.74036e-05
6.53524e-06
2.45331e-05
9.82975e-06
2.12738e-05
1.31121e-05
2.25868e-05
1.4933e-05
2.44513e-05
1.59256e-05
2.54108e-05
1.5668e-05
2.78471e-05
1.24798e-05
3.41831e-05
9.70942e-06
3.26428e-05
8.2296e-06
3.05917e-05
7.15968e-06
3.09117e-05
6.06928e-06
3.12703e-05
5.00205e-06
3.12418e-05
3.76517e-06
3.12817e-05
2.49892e-06
3.12642e-05
1.18264e-06
3.12003e-05
3.06738e-05
-8.30783e-07
3.07711e-05
-2.04999e-06
2.95424e-05
-1.11535e-06
2.53999e-05
-1.29789e-06
2.98715e-05
-1.07674e-06
2.65896e-05
1.13504e-06
2.07228e-05
4.19288e-06
1.99827e-05
4.96755e-06
2.72468e-05
5.19499e-06
2.73103e-05
6.46724e-06
2.29981e-05
9.92742e-06
1.78855e-05
1.33092e-05
1.96466e-05
1.54138e-05
2.25061e-05
1.62846e-05
2.44415e-05
1.61277e-05
2.77248e-05
1.33888e-05
3.65006e-05
1.04258e-05
3.53673e-05
8.593e-06
3.22284e-05
7.41638e-06
3.19101e-05
6.22677e-06
3.2216e-05
5.09239e-06
3.21539e-05
3.81138e-06
3.23392e-05
2.47784e-06
3.23862e-05
1.0887e-06
3.23527e-05
3.15732e-05
-4.94288e-07
3.14028e-05
-2.15559e-06
3.14708e-05
-1.61225e-06
2.50166e-05
-1.28957e-06
2.97994e-05
-1.43162e-06
2.74761e-05
2.04296e-07
1.96322e-05
3.58391e-06
1.70346e-05
5.63528e-06
2.56687e-05
5.76362e-06
2.7556e-05
6.36285e-06
2.22229e-05
9.9878e-06
1.47472e-05
1.38631e-05
1.67249e-05
1.65877e-05
2.02888e-05
1.714e-05
2.40784e-05
1.63729e-05
2.87833e-05
1.40678e-05
3.90678e-05
1.12547e-05
3.85735e-05
8.97414e-06
3.46824e-05
7.72518e-06
3.33367e-05
6.51845e-06
3.35504e-05
5.36644e-06
3.34612e-05
4.08514e-06
3.37618e-05
2.80135e-06
3.38232e-05
1.43359e-06
3.38599e-05
3.31491e-05
-6.55028e-07
3.19221e-05
-2.15192e-06
3.27489e-05
-1.97634e-06
2.48627e-05
-2.13317e-06
2.99874e-05
-2.50286e-06
2.80479e-05
-5.18467e-07
1.77244e-05
3.84248e-06
1.2823e-05
7.09027e-06
2.29735e-05
6.90661e-06
2.78775e-05
7.09821e-06
2.13939e-05
1.07807e-05
1.07325e-05
1.46022e-05
1.34306e-05
1.76533e-05
1.74638e-05
1.79158e-05
2.36206e-05
1.62217e-05
3.05078e-05
1.43205e-05
4.10062e-05
1.17095e-05
4.12208e-05
8.97725e-06
3.73184e-05
7.65377e-06
3.46624e-05
6.44455e-06
3.46885e-05
5.28012e-06
3.45459e-05
3.99355e-06
3.49273e-05
2.73303e-06
3.4958e-05
1.42221e-06
3.50264e-05
3.44663e-05
-7.21205e-07
3.27907e-05
-1.77762e-06
3.39706e-05
-1.47508e-06
2.49081e-05
-1.97958e-06
3.07903e-05
-3.28871e-06
2.90811e-05
-8.22527e-07
1.50381e-05
4.29803e-06
8.03277e-06
8.78349e-06
1.994e-05
9.06872e-06
2.82384e-05
8.80222e-06
2.10452e-05
1.20612e-05
6.85407e-06
1.48788e-05
1.1321e-05
1.76151e-05
1.49706e-05
1.84436e-05
2.28504e-05
1.71788e-05
3.21913e-05
1.52605e-05
4.30483e-05
1.30505e-05
4.37988e-05
1.01023e-05
4.06038e-05
8.25584e-06
3.68289e-05
6.67621e-06
3.6534e-05
5.25439e-06
3.61995e-05
3.87585e-06
3.645e-05
2.60777e-06
3.63458e-05
1.42763e-06
3.62931e-05
3.59887e-05
-8.59068e-07
3.36721e-05
-1.88275e-06
3.4814e-05
-1.53648e-07
2.34476e-05
-2.19418e-07
3.10341e-05
-1.92664e-06
2.90922e-05
4.42943e-07
1.09654e-05
5.11401e-06
3.1208e-06
9.76874e-06
1.65143e-05
1.0609e-05
2.78912e-05
1.12716e-05
1.93639e-05
1.35713e-05
3.14828e-06
1.47605e-05
1.11014e-05
1.7182e-05
1.26819e-05
1.85549e-05
2.11141e-05
1.75967e-05
3.28931e-05
1.56738e-05
4.47143e-05
1.36484e-05
4.59663e-05
1.06011e-05
4.37612e-05
8.4042e-06
3.91321e-05
6.66536e-06
3.84129e-05
5.12649e-06
3.78306e-05
3.75904e-06
3.78387e-05
2.58023e-06
3.75145e-05
1.49847e-06
3.7314e-05
3.74008e-05
-1.06995e-06
3.49775e-05
-1.96757e-06
3.54089e-05
2.582e-06
1.98314e-05
4.2413e-06
2.97509e-05
3.32225e-06
2.81716e-05
4.82762e-06
6.79234e-06
7.53432e-06
6.7392e-07
1.08079e-05
1.50173e-05
1.23237e-05
2.68578e-05
1.46889e-05
1.5834e-05
1.60135e-05
9.74844e-07
1.41519e-05
1.39999e-05
1.67381e-05
1.08004e-05
1.87453e-05
1.82215e-05
1.91722e-05
3.26097e-05
1.75837e-05
4.62274e-05
1.48612e-05
4.89076e-05
1.11753e-05
4.77619e-05
8.42858e-06
4.22733e-05
6.45887e-06
4.07411e-05
4.70992e-06
3.9819e-05
3.18807e-06
3.94888e-05
2.05347e-06
3.87399e-05
1.20819e-06
3.82224e-05
3.87649e-05
-6.65012e-07
3.57249e-05
-7.94465e-07
3.47321e-05
4.31829e-06
1.50403e-05
7.55591e-06
2.76664e-05
1.01335e-05
2.52434e-05
1.35882e-05
2.25845e-06
1.28432e-05
1.07551e-06
1.09159e-05
1.81605e-05
1.39638e-05
2.47467e-05
2.06988e-05
1.00246e-05
2.05697e-05
1.19014e-06
1.55423e-05
1.94789e-05
1.88541e-05
9.01184e-06
2.13561e-05
1.49659e-05
2.13371e-05
3.22548e-05
1.88125e-05
4.84029e-05
1.50006e-05
5.27534e-05
1.12499e-05
5.17657e-05
8.27395e-06
4.57006e-05
6.02849e-06
4.33928e-05
4.17479e-06
4.18539e-05
2.68155e-06
4.10389e-05
1.71825e-06
3.9758e-05
1.16745e-06
3.88536e-05
4.01045e-05
-3.14384e-07
3.65483e-05
1.14624e-06
3.28589e-05
4.72105e-06
1.09436e-05
5.35662e-06
2.82447e-05
1.21056e-05
1.93292e-05
2.05947e-05
-3.92594e-06
1.79368e-05
3.06556e-06
8.17428e-06
2.59889e-05
1.28822e-05
2.17334e-05
2.4681e-05
7.4666e-07
2.43983e-05
2.65297e-06
1.54432e-05
2.61317e-05
2.02593e-05
7.37019e-06
2.36037e-05
1.1171e-05
2.19672e-05
3.26843e-05
1.85912e-05
5.10682e-05
1.41738e-05
5.71404e-05
1.00877e-05
5.61342e-05
6.72976e-06
4.95753e-05
4.43715e-06
4.61702e-05
2.7941e-06
4.37334e-05
1.52106e-06
4.24656e-05
9.1449e-07
4.05508e-05
8.43847e-07
3.92298e-05
4.11763e-05
-1.08158e-06
3.84634e-05
2.56512e-06
2.96889e-05
4.86081e-06
6.95717e-06
1.59357e-06
3.09695e-05
1.33348e-05
1.15041e-05
2.15964e-05
-1.07815e-05
1.04967e-05
9.61133e-06
8.13953e-07
3.36524e-05
1.53999e-05
1.12212e-05
2.62226e-05
-8.68843e-06
2.00397e-05
5.86015e-06
1.24601e-05
3.05936e-05
2.11248e-05
1.1188e-06
2.29597e-05
6.1505e-06
1.73471e-05
3.21824e-05
1.26344e-05
5.22746e-05
8.60097e-06
6.07843e-05
5.61523e-06
5.95171e-05
3.57786e-06
5.21116e-05
2.13421e-06
4.79066e-05
6.65319e-07
4.54383e-05
-2.93952e-07
4.38045e-05
-6.06456e-07
4.13482e-05
-2.93179e-07
3.92055e-05
4.0878e-05
-3.19489e-06
4.26495e-05
1.0099e-06
2.62197e-05
1.67313e-06
5.08686e-06
-2.86072e-06
3.46099e-05
9.79494e-06
5.47868e-06
1.27185e-05
-1.10491e-05
-5.08211e-06
2.27547e-05
-7.20601e-06
3.2973e-05
1.40613e-05
-2.88912e-06
1.82881e-05
-9.92858e-06
7.26516e-06
1.1954e-05
5.37062e-06
3.02918e-05
1.44741e-05
-6.08026e-06
1.06604e-05
8.9354e-06
1.69601e-06
3.4931e-05
-3.57991e-06
5.25839e-05
-4.45435e-06
6.05819e-05
-2.90752e-06
5.7778e-05
-1.68752e-06
5.13786e-05
-1.49549e-06
4.80832e-05
-2.16995e-06
4.66243e-05
-2.91362e-06
4.51575e-05
-3.38771e-06
4.23199e-05
-2.28845e-06
3.84367e-05
3.8676e-05
-4.57395e-06
4.75711e-05
-1.55236e-06
2.32755e-05
-8.79634e-07
5.62214e-06
-3.16496e-06
3.71941e-05
3.9124e-06
1.04451e-06
1.11479e-06
-8.03788e-06
-8.78919e-06
3.27904e-05
-3.5582e-06
2.87787e-05
7.09598e-06
-1.20861e-05
3.03331e-06
-7.9433e-06
-2.23761e-06
1.68e-05
1.71867e-06
2.70662e-05
3.47308e-06
-6.68058e-06
-6.06079e-06
1.88891e-05
-1.29424e-05
4.05937e-05
-1.41998e-05
5.24487e-05
-1.10903e-05
5.72844e-05
-6.34856e-06
5.34619e-05
-4.46868e-06
5.00083e-05
-3.98167e-06
4.82944e-05
-4.61922e-06
4.78219e-05
-6.06564e-06
4.6837e-05
-6.6245e-06
4.30995e-05
-4.40759e-06
3.6644e-05
3.43879e-05
-5.27511e-06
5.33915e-05
-3.24293e-06
2.19423e-05
-1.33459e-06
6.23859e-06
-3.87081e-06
4.04149e-05
-6.85326e-07
-9.96278e-07
3.20507e-07
-7.84168e-06
-4.12148e-06
3.55947e-05
-3.00559e-06
2.72397e-05
1.60071e-06
-1.61692e-05
-1.80614e-06
-6.01066e-06
-3.70401e-06
1.80975e-05
1.1733e-06
2.29824e-05
-1.44491e-06
-3.45129e-06
-1.02133e-05
2.90483e-05
-1.52906e-05
4.55157e-05
-1.5526e-05
5.22518e-05
-1.19016e-05
5.36887e-05
-7.70897e-06
4.99171e-05
-6.35897e-06
4.90724e-05
-6.21175e-06
4.8639e-05
-7.02127e-06
4.87344e-05
-8.40612e-06
4.82411e-05
-8.889e-06
4.37547e-05
-6.27438e-06
3.49808e-05
2.80762e-05
-6.12865e-06
6.04093e-05
-4.10317e-06
2.1196e-05
-1.18388e-06
5.23523e-06
-5.44012e-06
4.40429e-05
-4.66551e-06
-1.27314e-06
-1.42437e-06
-1.03378e-05
-1.02615e-06
3.42282e-05
-1.7562e-06
2.76986e-05
-1.4206e-06
-1.66227e-05
-4.18635e-06
-3.69357e-06
-4.43222e-06
1.80984e-05
7.50799e-07
1.86129e-05
-2.57014e-06
3.37808e-07
-1.04606e-05
3.72917e-05
-1.43131e-05
4.94581e-05
-1.40615e-05
5.17887e-05
-1.09961e-05
5.08437e-05
-8.29353e-06
4.77948e-05
-7.4338e-06
4.83994e-05
-7.30244e-06
4.84733e-05
-7.6135e-06
4.89515e-05
-8.81974e-06
4.9353e-05
-9.89721e-06
4.4944e-05
-8.63453e-06
3.42405e-05
1.89742e-05
-6.95992e-06
6.70449e-05
-6.63311e-06
1.97234e-05
-1.9818e-06
2.36223e-06
-6.2317e-06
4.66403e-05
-8.43713e-06
-4.6735e-07
-4.4934e-06
-1.36106e-05
1.58847e-07
2.95117e-05
-8.46441e-07
2.86451e-05
-2.48224e-06
-1.45812e-05
-3.93301e-06
-2.62449e-06
-3.90329e-06
1.77328e-05
3.94187e-07
1.50935e-05
-2.73164e-06
3.65208e-06
-8.74936e-06
4.34026e-05
-1.19347e-05
5.25743e-05
-1.19912e-05
5.19489e-05
-1.04329e-05
4.96321e-05
-9.20327e-06
4.68226e-05
-8.25789e-06
4.74824e-05
-7.37945e-06
4.75061e-05
-6.77514e-06
4.83492e-05
-7.28285e-06
4.97462e-05
-9.30874e-06
4.67266e-05
-1.00153e-05
3.38894e-05
9.25422e-06
-4.39162e-06
6.96119e-05
-6.8947e-06
1.85764e-05
-2.4827e-06
-9.80306e-07
-5.14462e-06
4.75317e-05
-9.14008e-06
1.68799e-06
-6.96482e-06
-1.45697e-05
-1.30009e-06
2.4397e-05
-3.54395e-07
2.83951e-05
-2.05787e-06
-1.19261e-05
-2.98904e-06
-1.65812e-06
-2.66934e-06
1.67725e-05
6.42439e-07
1.26582e-05
-2.39255e-06
6.5509e-06
-7.26455e-06
4.81835e-05
-1.00601e-05
5.5211e-05
-1.06856e-05
5.26688e-05
-1.02376e-05
4.94976e-05
-9.8204e-06
4.64383e-05
-8.48846e-06
4.60699e-05
-6.52157e-06
4.5455e-05
-4.87911e-06
4.67905e-05
-3.34138e-06
4.79714e-05
-5.19105e-06
4.79986e-05
-7.48452e-06
3.41662e-05
3.53768e-06
-5.64242e-08
6.83604e-05
-4.65839e-06
2.0372e-05
-3.37006e-06
-2.29824e-06
-3.24842e-06
4.75122e-05
-7.33296e-06
4.56934e-06
-7.71492e-06
-1.30554e-05
-3.43537e-06
2.1637e-05
-7.11167e-07
2.79247e-05
-2.75161e-06
-9.20975e-06
-3.7369e-06
-9.87384e-07
-2.08254e-06
1.46311e-05
3.76369e-07
1.11528e-05
-2.72746e-06
9.25537e-06
-7.02494e-06
5.21247e-05
-9.33317e-06
5.74954e-05
-1.00723e-05
5.34632e-05
-1.01564e-05
4.98057e-05
-9.95347e-06
4.62993e-05
-8.27673e-06
4.44941e-05
-5.81021e-06
4.309e-05
-3.68812e-06
4.49805e-05
-3.7778e-07
4.48443e-05
-3.03203e-07
4.7367e-05
-2.32043e-06
3.51542e-05
2.46236e-06
2.46657e-06
6.51289e-05
-1.24465e-06
2.31152e-05
-2.49004e-06
-1.60148e-06
-1.97628e-06
4.83909e-05
-6.03477e-06
7.74038e-06
-7.46621e-06
-1.08409e-05
-5.16354e-06
2.05173e-05
-3.49274e-06
2.84744e-05
-5.19618e-06
-7.13904e-06
-5.26617e-06
-8.31273e-07
-1.99773e-06
1.19021e-05
6.82887e-08
9.82634e-06
-3.36813e-06
1.18798e-05
-7.57546e-06
5.59077e-05
-9.57889e-06
5.95466e-05
-1.01628e-05
5.41143e-05
-1.02913e-05
4.9941e-05
-9.72054e-06
4.58978e-05
-8.1707e-06
4.32712e-05
-5.82747e-06
4.10741e-05
-3.78225e-06
4.32815e-05
-5.70774e-07
4.18273e-05
1.54676e-06
4.51499e-05
1.02753e-06
3.55206e-05
3.93291e-06
2.96706e-06
6.19354e-05
1.54521e-06
2.43071e-05
-9.20309e-07
5.22719e-07
-8.62145e-07
4.97317e-05
-5.50388e-06
1.10909e-05
-6.84604e-06
-8.53722e-06
-5.12536e-06
2.00072e-05
-5.47625e-06
3.04014e-05
-6.87226e-06
-5.39161e-06
-6.23182e-06
-8.56393e-07
-2.64275e-06
9.56953e-06
-1.03499e-06
8.89911e-06
-4.86848e-06
1.45467e-05
-8.48474e-06
5.91773e-05
-1.02848e-05
6.14526e-05
-1.08992e-05
5.4827e-05
-1.07493e-05
4.983e-05
-9.64396e-06
4.49103e-05
-8.25042e-06
4.20838e-05
-6.19264e-06
3.94496e-05
-4.24589e-06
4.15297e-05
-1.58268e-06
3.94534e-05
1.40622e-06
4.23792e-05
2.09683e-06
3.47831e-05
6.32713e-06
2.3916e-06
5.9461e-05
2.99607e-06
2.34723e-05
4.19824e-07
3.19092e-06
6.01584e-07
5.08639e-05
-4.14142e-06
1.44585e-05
-5.29753e-06
-6.45911e-06
-3.65449e-06
1.99114e-05
-6.6274e-06
3.40636e-05
-8.30126e-06
-3.43954e-06
-7.3511e-06
-8.72893e-07
-4.48888e-06
7.99089e-06
-3.38519e-06
8.38572e-06
-6.6542e-06
1.67514e-05
-9.54869e-06
6.14972e-05
-1.12564e-05
6.32715e-05
-1.21196e-05
5.57998e-05
-1.17821e-05
4.95971e-05
-1.0214e-05
4.32719e-05
-8.4525e-06
4.0345e-05
-6.42213e-06
3.76129e-05
-4.27328e-06
3.95139e-05
-2.10078e-06
3.74869e-05
6.65918e-07
3.97804e-05
2.21515e-06
3.29352e-05
8.88024e-06
2.2505e-06
5.70892e-05
4.46226e-06
2.12528e-05
1.96085e-06
6.00816e-06
1.85955e-06
5.20984e-05
-2.12841e-06
1.75849e-05
-3.35362e-06
-4.54625e-06
-2.07072e-06
2.03811e-05
-7.59912e-06
3.91993e-05
-9.44983e-06
-1.14353e-06
-8.4011e-06
-7.119e-07
-6.56552e-06
7.30451e-06
-5.82121e-06
8.21876e-06
-7.95793e-06
1.82802e-05
-1.00022e-05
6.29454e-05
-1.16489e-05
6.50001e-05
-1.30339e-05
5.71455e-05
-1.29758e-05
4.95107e-05
-1.12217e-05
4.10331e-05
-9.03677e-06
3.73629e-05
-6.4781e-06
3.44659e-05
-4.2019e-06
3.66965e-05
-2.47148e-06
3.51739e-05
2.51899e-08
3.67485e-05
2.3527e-06
2.98552e-05
1.1887e-05
3.03188e-06
5.39519e-05
6.20271e-06
1.85982e-05
3.46985e-06
9.07077e-06
2.41519e-06
5.41675e-05
-1.23001e-07
2.02414e-05
-1.53611e-06
-2.78446e-06
-8.18233e-07
2.11639e-05
-8.42046e-06
4.50505e-05
-1.07239e-05
1.53584e-06
-9.77869e-06
-3.92409e-07
-8.60795e-06
7.33927e-06
-7.97477e-06
8.31998e-06
-8.77446e-06
1.89124e-05
-9.85752e-06
6.33684e-05
-1.14368e-05
6.6534e-05
-1.37068e-05
5.89659e-05
-1.46812e-05
4.96789e-05
-1.25194e-05
3.74953e-05
-9.24862e-06
3.31421e-05
-6.23603e-06
3.06992e-05
-3.77415e-06
3.31834e-05
-1.99502e-06
3.23499e-05
5.6351e-07
3.30119e-05
3.17395e-06
2.73655e-05
1.59137e-05
4.39908e-06
4.92639e-05
8.15091e-06
1.62303e-05
5.24598e-06
1.2348e-05
2.10875e-06
5.79013e-05
1.0011e-06
2.25229e-05
-3.41247e-07
-1.3139e-06
-8.38188e-08
2.1772e-05
-8.89878e-06
5.08273e-05
-1.16714e-05
4.36176e-06
-1.08987e-05
1.57304e-07
-1.03758e-05
8.13804e-06
-9.97142e-06
8.84294e-06
-9.43746e-06
1.8656e-05
-9.17451e-06
6.23658e-05
-1.01462e-05
6.73258e-05
-1.29343e-05
6.09964e-05
-1.44933e-05
4.97394e-05
-1.13668e-05
3.34447e-05
-7.64442e-06
3.02031e-05
-5.0284e-06
2.91508e-05
-2.62831e-06
3.11925e-05
-5.95973e-07
3.08442e-05
2.1035e-06
3.07847e-05
3.79873e-06
2.75161e-05
2.05188e-05
6.3605e-06
4.23544e-05
1.05128e-05
1.43693e-05
7.33917e-06
1.57347e-05
9.99529e-07
6.33634e-05
6.61666e-07
2.45612e-05
-1.30854e-07
-2.58901e-07
5.20691e-08
2.17767e-05
-8.816e-06
5.59425e-05
-1.22182e-05
7.2739e-06
-1.17613e-05
1.0464e-06
-1.17944e-05
9.57677e-06
-1.18207e-05
1.00434e-05
-1.02266e-05
1.78108e-05
-7.9051e-06
5.92954e-05
-7.4591e-06
6.67672e-05
-9.90128e-06
6.2072e-05
-1.09931e-05
4.86813e-05
-7.61218e-06
3.12945e-05
-5.31452e-06
3.00103e-05
-3.78951e-06
3.01268e-05
-1.66681e-06
3.15209e-05
2.89915e-07
3.13397e-05
2.70829e-06
3.10385e-05
3.37251e-06
2.9296e-05
2.43409e-05
8.22862e-06
3.53626e-05
1.24209e-05
1.33246e-05
8.62964e-06
1.91272e-05
-6.63041e-07
6.96169e-05
-9.23106e-07
2.58864e-05
-1.24818e-06
5.96707e-07
-4.3734e-07
2.10729e-05
-7.98811e-06
5.96853e-05
-1.19103e-05
1.00657e-05
-1.19255e-05
2.44675e-06
-1.2576e-05
1.15779e-05
-1.33191e-05
1.20947e-05
-1.11757e-05
1.71267e-05
-6.5954e-06
5.4181e-05
-4.83732e-06
6.50121e-05
-4.95304e-06
6.11427e-05
-4.14435e-06
4.57796e-05
-2.75516e-06
3.14649e-05
-2.15483e-06
3.1182e-05
-1.6981e-06
3.15028e-05
-4.69749e-07
3.25763e-05
8.13643e-07
3.22811e-05
2.22937e-06
3.20258e-05
2.19269e-06
3.09435e-05
2.68649e-05
8.19662e-06
3.10785e-05
1.20108e-05
1.29354e-05
7.38363e-06
2.19221e-05
-2.22422e-06
7.49288e-05
-2.59879e-06
2.59749e-05
-3.13367e-06
1.88133e-06
-1.32719e-06
1.98796e-05
-6.22007e-06
6.11377e-05
-1.0509e-05
1.26331e-05
-1.13451e-05
4.58849e-06
-1.26067e-05
1.39796e-05
-1.42357e-05
1.49658e-05
-1.21444e-05
1.73135e-05
-5.79003e-06
4.81043e-05
-3.13221e-06
6.13679e-05
-9.64329e-07
5.76321e-05
2.24447e-06
4.23097e-05
1.77944e-06
3.28241e-05
9.1592e-07
3.28598e-05
4.99164e-07
3.27587e-05
7.97126e-07
3.34453e-05
1.23504e-06
3.2984e-05
1.65389e-06
3.28248e-05
1.26487e-06
3.20509e-05
2.84716e-05
6.35501e-06
2.90539e-05
8.6386e-06
1.30735e-05
3.73289e-06
2.36557e-05
-2.68817e-06
7.7643e-05
-3.2487e-06
2.53414e-05
-4.74333e-06
4.21167e-06
-2.47759e-06
1.89971e-05
-3.7215e-06
6.05463e-05
-7.94439e-06
1.49701e-05
-9.87279e-06
7.60521e-06
-1.17593e-05
1.67314e-05
-1.42759e-05
1.84342e-05
-1.29023e-05
1.88745e-05
-6.24804e-06
4.34489e-05
-1.7008e-06
5.52961e-05
2.8164e-06
5.1944e-05
6.26639e-06
4.07591e-05
4.82404e-06
3.51564e-05
3.19226e-06
3.48185e-05
2.12209e-06
3.4171e-05
1.75146e-06
3.43118e-05
1.55231e-06
3.37067e-05
1.35286e-06
3.35446e-05
8.01979e-07
3.29634e-05
2.96616e-05
3.56251e-06
2.83265e-05
3.43861e-06
1.40792e-05
1.26396e-07
2.49398e-05
-1.27539e-06
7.70994e-05
-2.44796e-06
2.5011e-05
-5.23297e-06
7.62165e-06
-3.25725e-06
1.8986e-05
-1.21119e-06
5.76333e-05
-4.92019e-06
1.72195e-05
-7.83622e-06
1.12457e-05
-1.01192e-05
1.9635e-05
-1.32329e-05
2.20728e-05
-1.29285e-05
2.13904e-05
-7.1174e-06
4.14507e-05
-6.53543e-07
4.9731e-05
5.2806e-06
4.74807e-05
7.68467e-06
4.11356e-05
5.98554e-06
3.77734e-05
4.28724e-06
3.67035e-05
3.01282e-06
3.56513e-05
2.32393e-06
3.52683e-05
1.77319e-06
3.45694e-05
1.26803e-06
3.43284e-05
6.55573e-07
3.38497e-05
3.07185e-05
8.63124e-07
2.89619e-05
-1.03539e-06
1.63205e-05
-2.51463e-06
2.59019e-05
5.63056e-07
7.33656e-05
-7.5503e-07
2.553e-05
-4.70777e-06
1.19262e-05
-3.67662e-06
2.00946e-05
9.11705e-07
5.27552e-05
-1.8736e-06
1.95949e-05
-5.46566e-06
1.52115e-05
-7.85614e-06
2.24839e-05
-1.10393e-05
2.5461e-05
-1.14911e-05
2.37583e-05
-6.84799e-06
4.08917e-05
-3.3131e-07
4.71163e-05
5.32698e-06
4.58638e-05
6.89936e-06
4.18727e-05
5.50266e-06
3.97956e-05
4.24239e-06
3.81656e-05
3.17276e-06
3.69841e-05
2.46683e-06
3.62229e-05
1.82164e-06
3.55041e-05
1.24043e-06
3.5159e-05
6.46011e-07
3.47368e-05
3.17688e-05
-1.26676e-06
3.07292e-05
-4.0661e-06
1.95665e-05
-4.01794e-06
2.64996e-05
2.30019e-06
6.64033e-05
1.2433e-06
2.67173e-05
-3.40587e-06
1.67135e-05
-3.55328e-06
2.22629e-05
2.30469e-06
4.9088e-05
3.90016e-07
2.2049e-05
-3.33301e-06
1.91648e-05
-5.65208e-06
2.50623e-05
-8.47427e-06
2.83095e-05
-9.09008e-06
2.55056e-05
-5.67544e-06
4.03869e-05
-6.64905e-07
4.58097e-05
3.54772e-06
4.50553e-05
4.66564e-06
4.21877e-05
4.06789e-06
4.08478e-05
3.50002e-06
3.90613e-05
2.83675e-06
3.80084e-05
2.29825e-06
3.70673e-05
1.72494e-06
3.64052e-05
1.19599e-06
3.59828e-05
6.6836e-07
3.5602e-05
3.28307e-05
-2.54506e-06
3.31825e-05
-5.74664e-06
2.32103e-05
-4.85265e-06
2.75228e-05
3.52387e-06
5.88684e-05
3.08986e-06
2.82635e-05
-1.53897e-06
2.14212e-05
-2.74659e-06
2.48866e-05
2.72804e-06
4.78601e-05
1.41243e-06
2.4364e-05
-1.92405e-06
2.26999e-05
-3.99629e-06
2.72737e-05
-6.25474e-06
3.05885e-05
-6.85625e-06
2.68508e-05
-4.45988e-06
3.96531e-05
-1.19841e-06
4.44837e-05
1.49718e-06
4.40759e-05
2.48547e-06
4.19991e-05
2.63558e-06
4.12171e-05
2.59548e-06
3.95483e-05
2.29776e-06
3.87572e-05
1.96218e-06
3.77856e-05
1.52988e-06
3.72245e-05
1.11093e-06
3.6764e-05
6.75311e-07
3.64294e-05
3.38965e-05
-2.80266e-06
3.56526e-05
-5.95673e-06
2.65865e-05
-5.00424e-06
2.90043e-05
3.92891e-06
5.40385e-05
4.04746e-06
2.9929e-05
5.30092e-08
2.55181e-05
-1.7721e-06
2.73126e-05
2.54779e-06
4.72591e-05
1.46351e-06
2.63216e-05
-1.30165e-06
2.56236e-05
-3.0103e-06
2.91155e-05
-4.7236e-06
3.23996e-05
-5.40473e-06
2.80584e-05
-3.74303e-06
3.89853e-05
-1.65968e-06
4.32727e-05
7.9336e-08
4.31746e-05
1.02152e-06
4.16201e-05
1.54469e-06
4.12666e-05
1.78449e-06
3.98205e-05
1.73746e-06
3.93081e-05
1.57792e-06
3.83827e-05
1.29046e-06
3.79465e-05
9.88636e-07
3.74792e-05
6.49484e-07
3.71981e-05
3.49321e-05
-2.23739e-06
3.75677e-05
-4.93572e-06
2.93603e-05
-4.40092e-06
3.05128e-05
3.55637e-06
5.1524e-05
3.83766e-06
3.13466e-05
8.4684e-07
2.86747e-05
-1.06585e-06
2.93797e-05
2.06469e-06
4.63932e-05
1.07424e-06
2.79616e-05
-1.13044e-06
2.80234e-05
-2.48812e-06
3.06435e-05
-3.76508e-06
3.3879e-05
-4.54727e-06
2.9262e-05
-3.36861e-06
3.85726e-05
-1.93869e-06
4.23868e-05
-7.27833e-07
4.25445e-05
1.46087e-07
4.12909e-05
7.94168e-07
4.12403e-05
1.14476e-06
4.00177e-05
1.24879e-06
3.97404e-05
1.21249e-06
3.88964e-05
1.04827e-06
3.85837e-05
8.47121e-07
3.8132e-05
5.97055e-07
3.79058e-05
3.59192e-05
-1.32615e-06
3.88068e-05
-3.41721e-06
3.14545e-05
-3.35547e-06
3.17415e-05
2.76049e-06
4.94468e-05
2.9759e-06
3.23343e-05
9.33526e-07
3.0961e-05
-7.37136e-07
3.10499e-05
1.60187e-06
4.53413e-05
6.5219e-07
2.93471e-05
-1.14928e-06
3.00794e-05
-2.23851e-06
3.19115e-05
-3.20181e-06
3.51359e-05
-4.07677e-06
3.04816e-05
-3.19974e-06
3.84152e-05
-2.0951e-06
4.17932e-05
-1.14612e-06
4.21568e-05
-3.54992e-07
4.10783e-05
2.84889e-07
4.12358e-05
6.59536e-07
4.02019e-05
8.46935e-07
4.00973e-05
8.90395e-07
3.93483e-05
8.2175e-07
3.91426e-05
7.01322e-07
3.87208e-05
5.28865e-07
3.8546e-05
3.68389e-05
-4.89466e-07
3.9521e-05
-2.00846e-06
3.30292e-05
-2.30698e-06
3.27435e-05
2.07097e-06
4.73532e-05
2.06371e-06
3.30543e-05
6.90698e-07
3.26299e-05
-7.18139e-07
3.23925e-05
1.24876e-06
4.42368e-05
2.8521e-07
3.061e-05
-1.22974e-06
3.18389e-05
-2.14072e-06
3.30177e-05
-2.90538e-06
3.62211e-05
-3.80964e-06
3.16928e-05
-3.12352e-06
3.84445e-05
-2.17345e-06
4.14097e-05
-1.34689e-06
4.19436e-05
-6.50922e-07
4.09863e-05
-6.68562e-08
4.12812e-05
2.94185e-07
4.03985e-05
5.23972e-07
4.04165e-05
6.16969e-07
3.97583e-05
6.18217e-07
3.96421e-05
5.59085e-07
3.92568e-05
4.53499e-07
3.91254e-05
3.76879e-05
3.86785e-08
3.99217e-05
-1.06269e-06
3.42703e-05
-1.6171e-06
3.37035e-05
1.47162e-06
4.55195e-05
1.33842e-06
3.37943e-05
3.58383e-07
3.3899e-05
-7.99255e-07
3.36037e-05
8.75301e-07
4.32921e-05
7.91219e-08
3.17494e-05
-1.28537e-06
3.35394e-05
-1.9861e-06
3.40252e-05
-2.60855e-06
3.72096e-05
-3.5607e-06
3.28895e-05
-3.02394e-06
3.86333e-05
-2.19155e-06
4.11772e-05
-1.4429e-06
4.18496e-05
-8.39285e-07
4.09844e-05
-3.17271e-07
4.13664e-05
1.99069e-08
4.06066e-05
2.70483e-07
4.07064e-05
3.92084e-07
4.01353e-05
4.43376e-07
4.00856e-05
4.29204e-07
3.97435e-05
3.77014e-07
3.96441e-05
3.84569e-05
3.79981e-07
4.01234e-05
-5.60946e-07
3.53707e-05
-1.10902e-06
3.45125e-05
1.23403e-06
4.4164e-05
9.40458e-07
3.44242e-05
9.22151e-08
3.53413e-05
-7.63567e-07
3.44607e-05
8.38307e-07
4.2615e-05
-2.01087e-07
3.24325e-05
-1.27369e-06
3.48518e-05
-2.04781e-06
3.48645e-05
-2.61636e-06
3.80177e-05
-3.42016e-06
3.39536e-05
-2.96333e-06
3.88599e-05
-2.20505e-06
4.10787e-05
-1.50903e-06
4.18065e-05
-9.84214e-07
4.10434e-05
-5.07498e-07
4.14717e-05
-1.94661e-07
4.0822e-05
6.40176e-08
4.09772e-05
2.02971e-07
4.04856e-05
2.89879e-07
4.04862e-05
3.12658e-07
4.01858e-05
3.0211e-07
4.01138e-05
3.91502e-05
4.57568e-07
4.02573e-05
-1.15825e-07
3.64067e-05
-7.71697e-07
3.52069e-05
1.08289e-06
4.31299e-05
4.1805e-07
3.45521e-05
1.56119e-08
3.66534e-05
-1.1162e-06
3.49145e-05
3.31533e-07
4.19795e-05
-1.58534e-07
3.38953e-05
-1.10194e-06
3.586e-05
-2.06911e-06
3.56259e-05
-2.10482e-06
3.83749e-05
-3.16362e-06
3.50152e-05
-2.84537e-06
3.91355e-05
-2.19086e-06
4.10715e-05
-1.53495e-06
4.17996e-05
-1.0865e-06
4.11385e-05
-6.41483e-07
4.15844e-05
-3.56916e-07
4.1038e-05
-9.60453e-08
4.12285e-05
5.04235e-08
4.08086e-05
1.64569e-07
4.08433e-05
2.13763e-07
4.05841e-05
2.35476e-07
4.05314e-05
3.97626e-05
5.34482e-07
4.03537e-05
-3.86997e-07
3.68963e-05
-8.67706e-07
3.61879e-05
8.90064e-07
4.22725e-05
7.23047e-07
3.56367e-05
-7.28446e-07
3.68667e-05
-1.1804e-06
3.61648e-05
5.08797e-07
4.13936e-05
2.37854e-07
3.53195e-05
-1.28649e-06
3.60534e-05
-2.06718e-06
3.68179e-05
-1.89983e-06
3.89997e-05
-3.12728e-06
3.57108e-05
-2.6394e-06
3.93654e-05
-2.09416e-06
4.1123e-05
-1.51514e-06
4.17714e-05
-1.14529e-06
4.12821e-05
-7.37505e-07
4.16646e-05
-4.80984e-07
4.12574e-05
-2.23795e-07
4.14126e-05
-7.35377e-08
4.11037e-05
5.51164e-08
4.11366e-05
1.23573e-07
4.09371e-05
1.65821e-07
4.08936e-05
4.02852e-05
5.28711e-07
4.0557e-05
-5.55753e-07
3.71041e-05
-8.67267e-07
3.6972e-05
9.35718e-07
4.20304e-05
7.97877e-07
3.6581e-05
-6.63959e-07
3.6891e-05
-1.0336e-06
3.71668e-05
1.2154e-08
4.08328e-05
-1.80166e-07
3.63879e-05
-1.23492e-06
3.65553e-05
-1.77698e-06
3.75735e-05
-1.94704e-06
3.91634e-05
-2.51525e-06
3.68096e-05
-2.43892e-06
3.94491e-05
-2.05512e-06
4.12205e-05
-1.50628e-06
4.17506e-05
-1.19605e-06
4.14197e-05
-8.09358e-07
4.17897e-05
-5.74269e-07
4.14483e-05
-3.24643e-07
4.16219e-05
-1.77848e-07
4.13612e-05
-3.60546e-08
4.14234e-05
4.55343e-08
4.12488e-05
1.06207e-07
4.12234e-05
4.07376e-05
2.68682e-07
4.05117e-05
-2.05961e-07
3.75443e-05
-3.60307e-07
3.7517e-05
3.77792e-07
4.14245e-05
2.66534e-07
3.71928e-05
-5.29628e-07
4.2196e-05
-7.39667e-07
3.7756e-05
-2.5852e-07
4.03236e-05
-4.70762e-07
4.03561e-05
-1.15818e-06
3.85066e-05
-1.58305e-06
3.81311e-05
-1.8411e-06
3.93117e-05
-2.183e-06
3.75168e-05
-2.2485e-06
3.94632e-05
-1.92641e-06
4.12797e-05
-1.41264e-06
4.17907e-05
-1.19863e-06
4.14818e-05
-8.26093e-07
4.18889e-05
-6.4511e-07
4.15448e-05
-3.86512e-07
4.17926e-05
-2.6506e-07
4.15129e-05
-9.82733e-08
4.16154e-05
-1.80168e-08
4.1447e-05
5.13544e-08
4.14318e-05
4.10367e-05
1.48926e-07
4.05031e-05
-1.05206e-07
4.0113e-05
-2.00656e-07
3.80766e-05
1.2876e-07
4.09084e-05
1.72817e-08
4.21973e-05
-4.53137e-07
4.51064e-05
-5.99979e-07
3.82139e-05
-4.1631e-07
4.01946e-05
-6.29915e-07
4.25834e-05
-1.09152e-06
4.56686e-05
-1.41463e-06
3.8519e-05
-1.64756e-06
3.95507e-05
-1.91997e-06
4.07849e-05
-1.98955e-06
3.95678e-05
-1.74249e-06
4.13147e-05
-1.39383e-06
4.16554e-05
-1.14354e-06
4.15511e-05
-8.67875e-07
4.17787e-05
-6.60074e-07
4.16321e-05
-4.54727e-07
4.17704e-05
-3.03507e-07
4.16171e-05
-1.6648e-07
4.1649e-05
-6.85729e-08
4.15623e-05
1.68296e-09
4.15234e-05
4.11913e-05
9.21361e-08
4.05446e-05
-6.6822e-08
4.60375e-05
-1.46942e-07
4.45302e-05
7.73226e-09
4.07943e-05
-9.86471e-08
4.508e-05
-4.32091e-07
4.20519e-05
-5.28665e-07
4.33615e-05
-5.00787e-07
4.02792e-05
-7.18029e-07
3.97885e-05
-1.04355e-06
4.48845e-05
-1.29102e-06
4.34688e-05
-1.4758e-06
4.03718e-05
-1.67308e-06
4.63603e-05
-1.71779e-06
4.02046e-05
-1.54713e-06
4.13503e-05
-1.30088e-06
4.15374e-05
-1.07883e-06
4.15847e-05
-8.58049e-07
4.16995e-05
-6.69598e-07
4.16769e-05
-4.91871e-07
4.17325e-05
-3.47754e-07
4.16699e-05
-2.18677e-07
4.16774e-05
-1.11209e-07
4.16247e-05
-3.48538e-08
4.15914e-05
4.1292e-05
5.11505e-08
4.60824e-05
-6.39843e-08
4.47352e-05
-1.11831e-07
4.56365e-05
-7.14451e-08
4.41068e-05
-1.70757e-07
4.21707e-05
-4.5127e-07
3.96833e-05
-5.19992e-07
4.61052e-05
-5.25539e-07
4.78968e-05
-7.04753e-07
3.89205e-05
-1.01832e-06
3.92922e-05
-1.24016e-06
4.64515e-05
-1.30983e-06
5.03788e-05
-1.47931e-06
4.48591e-05
-1.54311e-06
4.97788e-05
-1.37107e-06
4.40304e-05
-1.19238e-06
4.37094e-05
-1.01557e-06
4.34309e-05
-8.35769e-07
4.33149e-05
-6.66394e-07
4.33294e-05
-5.11666e-07
4.33421e-05
-3.73763e-07
4.34151e-05
-2.52824e-07
4.35915e-05
-1.47381e-07
4.355e-05
-6.13241e-08
4.39811e-05
4.49035e-05
5.61858e-08
4.81287e-05
-6.31372e-08
3.96761e-05
-1.14883e-07
4.11059e-05
-9.18813e-08
4.91127e-05
-2.32948e-07
3.97544e-05
-4.33358e-07
3.82878e-05
-5.33724e-07
4.30236e-05
-5.43449e-07
4.83599e-05
-6.82412e-07
3.90517e-05
-9.29212e-07
3.91825e-05
-1.1444e-06
4.36036e-05
-1.17695e-06
5.01577e-05
-1.35906e-06
4.00116e-05
-1.4087e-06
4.94555e-05
-1.25261e-06
5.01839e-05
-1.10751e-06
5.08413e-05
-9.56764e-07
5.13656e-05
-8.02906e-07
5.17983e-05
-6.54176e-07
5.17682e-05
-5.13315e-07
5.18396e-05
-3.84233e-07
5.16638e-05
-2.69563e-07
5.13989e-05
-1.65763e-07
5.13898e-05
-7.56456e-08
5.07617e-05
4.94747e-05
4.54988e-08
4.43831e-05
-5.46083e-08
3.90515e-05
-1.54093e-07
4.00466e-05
-1.29667e-07
4.75346e-05
-2.51139e-07
3.85137e-05
-3.97576e-07
3.85603e-05
-5.17633e-07
4.04939e-05
-5.28827e-07
4.23916e-05
-6.67608e-07
3.8585e-05
-8.25731e-07
3.85938e-05
-9.52132e-07
4.08462e-05
-1.01029e-06
4.11998e-05
-1.15493e-06
3.9051e-05
-1.19633e-06
4.10003e-05
-1.12237e-06
4.9036e-05
-9.94724e-07
5.00138e-05
-8.75674e-07
5.07172e-05
-7.46556e-07
5.12646e-05
-6.18862e-07
5.12101e-05
-4.98802e-07
5.13116e-05
-3.85957e-07
5.10757e-05
-2.79669e-07
5.07346e-05
-1.79623e-07
5.07278e-05
-8.6731e-08
4.9831e-05
4.75691e-05
5.44829e-08
4.19714e-05
-5.69188e-08
3.87586e-05
-1.64194e-07
3.87114e-05
-1.21806e-07
4.22576e-05
-2.54756e-07
3.86804e-05
-3.87371e-07
3.86782e-05
-4.87809e-07
3.90278e-05
-4.98637e-07
4.16473e-05
-6.45826e-07
3.8747e-05
-7.86107e-07
3.88437e-05
-8.7595e-07
3.93343e-05
-9.24034e-07
4.08434e-05
-1.05026e-06
3.89879e-05
-1.07477e-06
4.07385e-05
-1.00362e-06
4.26527e-05
-9.11319e-07
4.26695e-05
-8.1243e-07
4.2652e-05
-7.04884e-07
4.26656e-05
-5.96104e-07
4.26931e-05
-4.87889e-07
4.27288e-05
-3.7894e-07
4.27542e-05
-2.7703e-07
4.2809e-05
-1.80959e-07
4.28076e-05
-8.85968e-08
4.28804e-05
4.27004e-05
5.85261e-08