/*--------------------------------*- C++ -*----------------------------------*\
  =========                 |
  \\      /  F ield         | OpenFOAM: The Open Source CFD Toolbox
   \\    /   O peration     | Website:  https://openfoam.org
    \\  /    A nd           | Version:  dev
     \\/     M anipulation  |
\*---------------------------------------------------------------------------*/
FoamFile
{
    version     2.0;
    format      ascii;
    class       surfaceScalarField;
    location    "1";
    object      phi.water;
}
// * * * * * * * * * * * * * * * * * * * * * * * * * * * * * * * * * * * * * //

dimensions      [0 3 -1 0 0 0 0];

internalField   nonuniform List<scalar> 
3650
(
-4.75859e-07
1.75146e-07
-1.15694e-07
-7.42462e-07
2.12e-07
-1.22533e-06
-4.59963e-07
1.79211e-07
-2.57449e-07
-1.08338e-06
8.89586e-07
-2.27004e-06
1.67844e-06
-1.89116e-06
1.57463e-06
-3.5399e-07
1.95195e-06
-9.57244e-07
2.64073e-06
-2.0564e-06
3.72339e-06
-2.67186e-06
4.37047e-06
-1.82758e-06
5.37662e-06
-2.02842e-06
6.2179e-06
-1.80587e-06
6.6007e-06
-1.19223e-06
6.38349e-06
-4.17749e-07
6.34657e-06
-2.77094e-07
6.06461e-06
-2.68776e-07
5.37059e-06
-1.35225e-07
4.56443e-06
-4.68063e-08
3.74518e-06
4.25384e-08
2.89273e-06
2.40928e-07
2.10152e-06
2.70602e-07
1.20686e-06
4.31301e-07
7.38421e-07
-4.66416e-07
1.22537e-06
-5.77583e-07
4.6209e-07
1.73983e-07
-1.31392e-06
-7.05124e-07
1.62116e-06
1.26841e-07
-1.28179e-06
2.46108e-06
-3.83546e-06
4.77054e-06
-3.47846e-06
4.63104e-06
4.43202e-07
4.72689e-06
-3.17946e-07
6.44163e-06
-2.68076e-06
9.73096e-06
-4.79375e-06
1.20615e-05
-3.13534e-06
1.31291e-05
-2.18435e-06
1.40876e-05
-1.92869e-06
1.40217e-05
-4.66975e-07
1.17254e-05
1.53506e-06
9.92772e-06
1.84408e-06
8.96233e-06
1.27994e-06
7.7e-06
1.77532e-06
6.11062e-06
2.16056e-06
4.53858e-06
2.20956e-06
3.10464e-06
2.22957e-06
1.64041e-06
2.30773e-06
4.14444e-07
2.25573e-06
1.73544e-06
-1.20824e-06
2.06311e-06
-1.99237e-06
9.96211e-07
-1.23248e-06
-2.0437e-06
-1.34699e-06
1.60707e-06
-3.6536e-07
-2.52413e-06
1.9243e-06
-5.95348e-06
4.58358e-06
-5.90316e-06
4.78196e-06
1.19019e-07
4.57704e-06
-2.11235e-07
6.38711e-06
-4.04894e-06
9.63556e-06
-7.54803e-06
1.26818e-05
-5.84429e-06
1.44354e-05
-3.67481e-06
1.55579e-05
-2.81639e-06
1.57823e-05
-5.21196e-07
1.29583e-05
3.25271e-06
9.9813e-06
3.95814e-06
8.43733e-06
2.66852e-06
7.35969e-06
2.915e-06
6.3539e-06
3.25057e-06
5.32235e-06
3.26148e-06
4.09878e-06
3.36699e-06
2.77481e-06
3.47979e-06
1.35166e-06
3.50741e-06
2.94546e-06
-7.15141e-07
2.82337e-06
-1.91107e-06
1.36675e-06
-1.17617e-06
-2.56947e-06
-1.3339e-06
2.07459e-06
-1.28611e-06
-3.20251e-06
8.71095e-07
-8.12355e-06
3.68177e-06
-8.49618e-06
4.59086e-06
-5.85924e-07
4.57456e-06
-2.00287e-07
6.21625e-06
-5.54116e-06
9.66698e-06
-1.08702e-05
1.24506e-05
-8.65424e-06
1.4435e-05
-5.54018e-06
1.531e-05
-3.39152e-06
1.54253e-05
-2.34852e-07
1.34687e-05
5.4773e-06
1.08465e-05
6.37711e-06
8.95846e-06
4.76678e-06
7.61269e-06
4.52383e-06
6.38125e-06
4.76502e-06
5.18377e-06
4.73565e-06
3.872e-06
4.95983e-06
2.52826e-06
5.07161e-06
1.15914e-06
5.10852e-06
4.31841e-06
-4.93676e-07
3.24789e-06
-1.78135e-06
1.72964e-06
-1.58171e-06
-2.65208e-06
-1.4198e-06
1.94761e-06
-1.75151e-06
-3.64246e-06
3.16561e-08
-1.07819e-05
3.2459e-06
-1.17811e-05
5.01354e-06
-2.43124e-06
4.85935e-06
-1.89467e-07
6.17507e-06
-7.06291e-06
1.00025e-05
-1.50301e-05
1.31733e-05
-1.2257e-05
1.58262e-05
-8.37495e-06
1.64921e-05
-4.03958e-06
1.56751e-05
5.23302e-07
1.3779e-05
7.16846e-06
1.14081e-05
8.21853e-06
9.29317e-06
6.82383e-06
7.93964e-06
6.02395e-06
6.68575e-06
6.17669e-06
5.45421e-06
6.0966e-06
4.13624e-06
6.39724e-06
2.82075e-06
6.47196e-06
1.4814e-06
6.51524e-06
5.87226e-06
-8.53789e-07
4.25453e-06
-1.93928e-06
2.65761e-06
-2.25691e-06
-2.20937e-06
-2.88241e-06
2.61157e-06
-3.25096e-06
-3.40525e-06
-3.54739e-07
-1.42229e-05
4.18013e-06
-1.64267e-05
6.62722e-06
-4.88236e-06
5.8258e-06
6.05683e-07
6.94354e-06
-8.10163e-06
1.1264e-05
-1.95558e-05
1.39394e-05
-1.52059e-05
1.65274e-05
-1.11307e-05
1.71904e-05
-4.68045e-06
1.58992e-05
1.11561e-06
1.44027e-05
8.64771e-06
1.22545e-05
9.91159e-06
9.66617e-06
9.28756e-06
8.03219e-06
7.87539e-06
6.62443e-06
7.8655e-06
5.29502e-06
7.68383e-06
3.95258e-06
7.97116e-06
2.67845e-06
7.95373e-06
1.43133e-06
7.96639e-06
7.49036e-06
-8.93037e-07
5.20134e-06
-1.71364e-06
3.37699e-06
-1.7414e-06
-2.31028e-06
-2.67497e-06
3.45696e-06
-3.48913e-06
-2.42107e-06
2.48291e-07
-1.78411e-05
5.23685e-06
-2.18799e-05
8.215e-06
-8.37134e-06
7.71846e-06
7.34491e-07
8.68788e-06
-8.72418e-06
1.25392e-05
-2.33234e-05
1.3849e-05
-1.68894e-05
1.59168e-05
-1.34797e-05
1.74884e-05
-6.61582e-06
1.69657e-05
5.06263e-07
1.55838e-05
9.94708e-06
1.37217e-05
1.14366e-05
1.0953e-05
1.15944e-05
8.7761e-06
9.98105e-06
6.89326e-06
9.80905e-06
5.24471e-06
9.41184e-06
3.80601e-06
9.5041e-06
2.53744e-06
9.31063e-06
1.41128e-06
9.18752e-06
8.98586e-06
-1.19575e-06
6.48864e-06
-1.97435e-06
4.27803e-06
-4.90985e-08
-4.36666e-06
-6.08296e-07
3.96402e-06
-7.20301e-07
-1.24588e-06
3.31592e-06
-2.08353e-05
6.90732e-06
-2.53973e-05
9.25713e-06
-1.11525e-05
9.19898e-06
3.43435e-07
1.1431e-05
-1.03658e-05
1.42912e-05
-2.48546e-05
1.33239e-05
-1.6168e-05
1.4553e-05
-1.46483e-05
1.70616e-05
-9.42696e-06
1.74677e-05
-2.81935e-08
1.64015e-05
1.11979e-05
1.4503e-05
1.32456e-05
1.15581e-05
1.4199e-05
9.04627e-06
1.24163e-05
6.94736e-06
1.1904e-05
5.15439e-06
1.12468e-05
3.6691e-06
1.11106e-05
2.45275e-06
1.06691e-05
1.42749e-06
1.03843e-05
1.05887e-05
-1.30882e-06
7.72347e-06
-1.50387e-06
4.6655e-06
3.18209e-06
-9.74914e-06
4.75075e-06
2.22676e-06
6.07386e-06
-1.36538e-06
9.67974e-06
-2.26614e-05
1.04578e-05
-2.57892e-05
1.04553e-05
-1.18533e-05
1.13045e-05
-8.19068e-07
1.54791e-05
-1.34402e-05
1.70372e-05
-2.46939e-05
1.32057e-05
-1.22158e-05
1.43234e-05
-1.52473e-05
1.76501e-05
-1.18241e-05
1.9235e-05
-1.70545e-06
1.86017e-05
1.18961e-05
1.59106e-05
1.58035e-05
1.21757e-05
1.75219e-05
9.01799e-06
1.53319e-05
6.61745e-06
1.41351e-05
4.6356e-06
1.31314e-05
3.02865e-06
1.27205e-05
1.89347e-06
1.18471e-05
1.13215e-06
1.12209e-05
1.17283e-05
-8.68368e-07
8.55796e-06
2.46868e-07
4.04042e-06
5.63745e-06
-1.61605e-05
7.8379e-06
-5.80827e-07
1.09843e-05
-4.09795e-06
1.57105e-05
-2.52111e-05
1.53688e-05
-2.4562e-05
1.13563e-05
-8.38171e-06
1.28682e-05
-2.76042e-06
1.9579e-05
-1.91899e-05
1.98851e-05
-2.38271e-05
1.45915e-05
-6.86455e-06
1.64183e-05
-1.66162e-05
1.99798e-05
-1.36385e-05
2.12389e-05
-2.80372e-06
2.00866e-05
1.32952e-05
1.64997e-05
1.938e-05
1.25197e-05
2.11576e-05
8.81912e-06
1.87345e-05
5.93234e-06
1.68331e-05
3.84063e-06
1.51464e-05
2.27787e-06
1.42731e-05
1.29275e-06
1.28334e-05
7.87015e-07
1.1725e-05
1.22452e-05
-1.0383e-06
9.32022e-06
1.66518e-06
1.67111e-06
5.96852e-06
-2.08214e-05
5.10859e-06
-6.31963e-07
1.10099e-05
-9.27926e-06
1.8083e-05
-3.09623e-05
1.61228e-05
-2.1979e-05
7.81868e-06
2.93023e-07
1.13482e-05
-6.39514e-06
2.13044e-05
-2.81493e-05
2.023e-05
-2.27843e-05
1.39015e-05
-1.97088e-07
1.72104e-05
-2.0573e-05
2.09677e-05
-1.70152e-05
2.12101e-05
-2.42942e-06
1.94598e-05
1.55337e-05
1.53093e-05
2.35672e-05
1.08463e-05
2.53763e-05
6.83735e-06
2.24599e-05
4.05949e-06
1.93796e-05
2.21521e-06
1.68892e-05
8.84308e-07
1.55418e-05
2.17786e-07
1.34228e-05
1.66981e-07
1.15079e-05
1.1588e-05
-2.37806e-06
1.12334e-05
1.25722e-06
-2.11855e-06
4.42088e-06
-2.24836e-05
9.80781e-07
2.82361e-06
8.75556e-06
-1.59658e-05
1.44676e-05
-3.5721e-05
4.44718e-06
-1.06877e-05
-1.87537e-06
7.03017e-06
1.11972e-05
-1.84727e-05
1.86983e-05
-3.4649e-05
1.26876e-05
-1.6287e-05
8.44369e-06
4.90103e-06
1.46191e-05
-2.74367e-05
1.54434e-05
-1.7497e-05
1.37153e-05
2.84843e-06
1.22456e-05
1.92951e-05
8.24392e-06
2.78687e-05
4.86232e-06
2.86569e-05
2.71297e-06
2.44432e-05
1.22252e-06
2.0744e-05
-3.44382e-07
1.83526e-05
-1.44345e-06
1.64684e-05
-1.98895e-06
1.36297e-05
-1.34881e-06
1.02188e-05
9.41378e-06
-4.00861e-06
1.46702e-05
-7.72934e-07
-5.60612e-06
2.52965e-07
-2.08689e-05
-2.94029e-06
6.72042e-06
3.49548e-06
-2.22167e-05
5.91832e-07
-3.39041e-05
-1.12856e-05
2.01695e-06
-6.47603e-06
3.88376e-06
7.84954e-06
-3.27924e-05
6.03479e-06
-3.38742e-05
-9.80853e-07
-8.58582e-06
1.40689e-06
3.53122e-06
4.88302e-06
-3.16557e-05
-3.1511e-06
-1.02951e-05
-6.46488e-06
9.59539e-06
-5.82813e-06
2.19488e-05
-5.32969e-06
2.81233e-05
-3.31553e-06
2.71185e-05
-2.28328e-06
2.32164e-05
-2.35263e-06
2.06445e-05
-3.18736e-06
1.89457e-05
-4.0547e-06
1.67397e-05
-4.47251e-06
1.3305e-05
-3.07772e-06
7.99445e-06
5.97388e-06
-4.40467e-06
1.86668e-05
-2.67969e-06
-6.34501e-06
-2.63808e-06
-1.8931e-05
-4.42203e-06
9.1761e-06
-7.66808e-07
-2.59166e-05
-3.68123e-06
-3.13786e-05
-8.98216e-06
6.45283e-06
-4.82168e-06
-1.91314e-07
1.4486e-06
-3.88773e-05
-1.91547e-06
-3.07011e-05
-4.34866e-06
-6.93301e-06
-4.61845e-07
-6.50967e-07
-2.92465e-06
-2.97909e-05
-1.2471e-05
-1.63605e-06
-1.52015e-05
1.28998e-05
-1.38375e-05
2.15044e-05
-1.04852e-05
2.5054e-05
-6.41324e-06
2.32111e-05
-4.94555e-06
2.13494e-05
-4.81644e-06
2.00934e-05
-5.47349e-06
1.89097e-05
-6.58277e-06
1.69963e-05
-6.8407e-06
1.28087e-05
-4.74691e-06
5.39348e-06
1.16592e-06
-5.19988e-06
2.3078e-05
-3.73197e-06
-5.98537e-06
-2.54173e-06
-1.93565e-05
-5.43549e-06
1.23771e-05
-4.29787e-06
-2.7269e-05
-3.01761e-06
-3.30606e-05
-3.98589e-06
7.70295e-06
-3.62586e-06
2.21798e-08
-1.83437e-06
-4.08244e-05
-4.22786e-06
-2.8664e-05
-4.00076e-06
-7.57396e-06
-4.3399e-08
-4.75831e-06
-4.28319e-06
-2.58654e-05
-1.24756e-05
5.39218e-06
-1.53594e-05
1.58136e-05
-1.41184e-05
2.05641e-05
-1.08292e-05
2.2056e-05
-7.81528e-06
1.99759e-05
-6.73911e-06
1.9603e-05
-6.49528e-06
1.89831e-05
-6.90957e-06
1.8388e-05
-7.81883e-06
1.72214e-05
-8.20138e-06
1.25106e-05
-6.54347e-06
3.15892e-06
-5.33905e-06
-6.43883e-06
2.87041e-05
-4.79675e-06
-6.46573e-06
-2.55244e-06
-2.15392e-05
-6.0623e-06
1.59955e-05
-6.40731e-06
-2.71349e-05
-3.22036e-06
-3.61753e-05
-1.00093e-06
5.91027e-06
-2.31999e-06
1.67725e-06
-2.96158e-06
-4.0102e-05
-4.8683e-06
-2.69534e-05
-4.22881e-06
-8.30368e-06
-5.05812e-07
-8.21334e-06
-4.2376e-06
-2.24192e-05
-1.08434e-05
1.13536e-05
-1.36798e-05
1.86024e-05
-1.27415e-05
1.97714e-05
-1.02186e-05
1.94507e-05
-8.54416e-06
1.78532e-05
-7.62442e-06
1.79387e-05
-7.03326e-06
1.74875e-05
-6.89747e-06
1.77028e-05
-7.65853e-06
1.76807e-05
-8.775e-06
1.30661e-05
-8.08455e-06
2.05565e-06
-1.2478e-05
-6.32753e-06
3.5142e-05
-5.7774e-06
-6.68536e-06
-2.61808e-06
-2.50797e-05
-5.56162e-06
1.94323e-05
-7.50251e-06
-2.51708e-05
-4.71548e-06
-3.86267e-05
-7.9248e-08
1.91549e-06
-1.49524e-06
3.37242e-06
-3.80648e-06
-3.77247e-05
-4.38441e-06
-2.61995e-05
-3.6013e-06
-8.92718e-06
-7.70725e-07
-1.05443e-05
-3.83325e-06
-1.96106e-05
-8.67773e-06
1.57641e-05
-1.10902e-05
2.10853e-05
-1.10742e-05
1.97034e-05
-1.00637e-05
1.79085e-05
-9.16234e-06
1.65394e-05
-7.96041e-06
1.62883e-05
-6.62383e-06
1.58151e-05
-5.76988e-06
1.67201e-05
-5.76107e-06
1.76033e-05
-7.52305e-06
1.48403e-05
-7.54458e-06
2.5361e-06
-1.81814e-05
-2.11434e-06
3.8204e-05
-3.76118e-06
-4.74977e-06
-1.68143e-06
-2.76374e-05
-3.11892e-06
2.16999e-05
-6.33344e-06
-2.19232e-05
-6.03365e-06
-3.87215e-05
-1.45038e-06
-1.48395e-06
-1.24143e-06
3.38871e-06
-3.62695e-06
-3.54293e-05
-4.07119e-06
-2.55702e-05
-2.84744e-06
-9.74835e-06
-6.96259e-07
-1.2369e-05
-3.48067e-06
-1.69888e-05
-7.3136e-06
1.92924e-05
-9.51888e-06
2.34212e-05
-1.01217e-05
2.02698e-05
-9.96732e-06
1.73533e-05
-9.39843e-06
1.54577e-05
-7.85131e-06
1.47182e-05
-5.72701e-06
1.37864e-05
-4.18074e-06
1.52065e-05
-1.85752e-06
1.53854e-05
-2.67846e-06
1.60391e-05
-3.77712e-06
4.37249e-06
-2.10982e-05
1.9061e-06
3.70048e-05
-9.6222e-07
-1.60933e-06
-1.39443e-06
-2.76045e-05
-1.56132e-06
2.19949e-05
-4.62366e-06
-1.88916e-05
-6.1278e-06
-3.71427e-05
-3.53235e-06
-3.42576e-06
-2.92566e-06
2.71359e-06
-5.21777e-06
-3.31307e-05
-5.19139e-06
-2.52537e-05
-2.9066e-06
-1.12218e-05
-1.36754e-06
-1.37968e-05
-3.91411e-06
-1.4545e-05
-7.10252e-06
2.20546e-05
-9.03257e-06
2.5393e-05
-9.64083e-06
2.08672e-05
-9.72428e-06
1.73152e-05
-9.17475e-06
1.44094e-05
-7.55547e-06
1.30856e-05
-5.36801e-06
1.16207e-05
-3.53728e-06
1.31952e-05
-3.10009e-07
1.20021e-05
1.13299e-06
1.49719e-05
2.68644e-07
5.32872e-06
-2.09797e-05
3.50198e-06
3.39371e-05
1.82736e-06
9.72035e-08
-8.2128e-08
-2.57898e-05
-1.00412e-06
2.25756e-05
-4.09574e-06
-1.58104e-05
-5.87162e-06
-3.52844e-05
-4.87012e-06
-4.25747e-06
-5.40728e-06
3.17589e-06
-7.00531e-06
-3.13658e-05
-6.34729e-06
-2.54596e-05
-3.40321e-06
-1.33242e-05
-2.02814e-06
-1.50615e-05
-4.51033e-06
-1.20709e-05
-7.45464e-06
2.47912e-05
-9.3057e-06
2.72426e-05
-9.84641e-06
2.13901e-05
-9.76676e-06
1.72545e-05
-8.82215e-06
1.32634e-05
-7.43017e-06
1.12939e-05
-5.5092e-06
9.5297e-06
-3.69173e-06
1.09492e-05
-9.15612e-07
9.07883e-06
1.75225e-06
1.23929e-05
2.22145e-06
4.72568e-06
-1.90148e-05
3.39833e-06
3.06866e-05
3.44766e-06
3.03265e-08
9.67788e-07
-2.31823e-05
-1.13298e-07
2.3292e-05
-3.41892e-06
-1.23775e-05
-5.02215e-06
-3.35309e-05
-4.65463e-06
-4.65929e-06
-6.72662e-06
5.07972e-06
-8.09822e-06
-2.97718e-05
-7.19315e-06
-2.58755e-05
-4.44374e-06
-1.55063e-05
-3.39599e-06
-1.59792e-05
-5.84554e-06
-9.46123e-06
-8.20996e-06
2.73266e-05
-1.00336e-05
2.90282e-05
-1.06764e-05
2.19939e-05
-1.03413e-05
1.69189e-05
-8.90104e-06
1.17639e-05
-7.35511e-06
9.36985e-06
-5.57499e-06
7.2842e-06
-3.71719e-06
8.80573e-06
-1.63477e-06
6.8208e-06
1.15081e-06
9.48857e-06
2.51955e-06
3.36151e-06
-1.66251e-05
2.67445e-06
2.8074e-05
4.50669e-06
-1.63356e-06
2.06155e-06
-2.06007e-05
9.8637e-07
2.40495e-05
-2.19285e-06
-8.98947e-06
-3.45127e-06
-3.20003e-05
-3.42381e-06
-4.78974e-06
-7.30245e-06
8.77127e-06
-8.93793e-06
-2.78848e-05
-8.11692e-06
-2.61741e-05
-6.24986e-06
-1.69852e-05
-5.56918e-06
-1.647e-05
-7.36641e-06
-7.41115e-06
-8.95005e-06
2.92567e-05
-1.07028e-05
3.07407e-05
-1.16476e-05
2.28948e-05
-1.12346e-05
1.64618e-05
-9.36313e-06
9.96011e-06
-7.36558e-06
7.33051e-06
-5.43109e-06
4.9839e-06
-3.402e-06
6.69651e-06
-1.73998e-06
5.04657e-06
7.24164e-07
6.93552e-06
2.55555e-06
1.70241e-06
-1.40276e-05
2.74463e-06
2.54009e-05
5.71359e-06
-4.27589e-06
3.29152e-06
-1.80502e-05
1.85006e-06
2.52953e-05
-7.60629e-07
-6.17363e-06
-1.97807e-06
-3.04834e-05
-2.35676e-06
-4.5465e-06
-7.48545e-06
1.38875e-05
-9.39349e-06
-2.5796e-05
-8.83755e-06
-2.62116e-05
-7.84025e-06
-1.75866e-05
-7.44872e-06
-1.65945e-05
-8.41403e-06
-6.22996e-06
-9.16244e-06
3.03903e-05
-1.07905e-05
3.23479e-05
-1.21136e-05
2.42706e-05
-1.18748e-05
1.62664e-05
-9.71305e-06
8.14323e-06
-7.27762e-06
5.52293e-06
-5.05581e-06
3.3291e-06
-2.94326e-06
4.98293e-06
-1.4496e-06
4.02645e-06
8.99655e-07
4.96234e-06
2.81354e-06
8.87262e-07
-1.09495e-05
3.70045e-06
2.17405e-05
6.98537e-06
-7.18942e-06
4.3811e-06
-1.53187e-05
2.07247e-06
2.74382e-05
1.92376e-07
-4.07703e-06
-1.04659e-06
-2.89998e-05
-1.57559e-06
-4.14263e-06
-7.32936e-06
1.98834e-05
-9.7209e-06
-2.33037e-05
-9.48119e-06
-2.5973e-05
-9.1409e-06
-1.74812e-05
-9.03481e-06
-1.63863e-05
-9.06234e-06
-6.00782e-06
-8.79605e-06
3.05581e-05
-1.01162e-05
3.37327e-05
-1.18451e-05
2.63177e-05
-1.18031e-05
1.67797e-05
-9.23817e-06
6.99164e-06
-6.54673e-06
4.68143e-06
-4.35699e-06
3.12503e-06
-2.27906e-06
4.66061e-06
-6.93979e-07
4.29979e-06
1.67503e-06
4.4223e-06
3.21644e-06
1.34443e-06
-7.2751e-06
5.08087e-06
1.67986e-05
8.19274e-06
-9.93937e-06
5.46166e-06
-1.2516e-05
1.70652e-06
3.10219e-05
3.43027e-07
-2.52016e-06
-8.38741e-07
-2.76307e-05
-1.15622e-06
-3.93206e-06
-6.58059e-06
2.57326e-05
-9.45131e-06
-2.04837e-05
-9.71894e-06
-2.53221e-05
-1.01004e-05
-1.6641e-05
-1.0442e-05
-1.56811e-05
-9.57073e-06
-6.61226e-06
-7.90086e-06
2.9398e-05
-8.2788e-06
3.42595e-05
-9.94023e-06
2.85072e-05
-9.85762e-06
1.76086e-05
-6.9525e-06
6.43871e-06
-4.69449e-06
4.48827e-06
-3.23012e-06
3.86021e-06
-1.43588e-06
5.29395e-06
2.22311e-07
5.06625e-06
2.37288e-06
4.7771e-06
3.10134e-06
2.50477e-06
-3.66756e-06
6.29916e-06
1.16144e-05
9.07089e-06
-1.20834e-05
6.16501e-06
-9.57564e-06
9.44608e-07
3.6347e-05
-2.23244e-07
-1.30107e-06
-1.4242e-06
-2.6325e-05
-1.2178e-06
-4.24409e-06
-5.35743e-06
3.02024e-05
-8.68027e-06
-1.74472e-05
-9.52749e-06
-2.41906e-05
-1.05472e-05
-1.51906e-05
-1.15152e-05
-1.42951e-05
-1.01353e-05
-7.47915e-06
-6.79528e-06
2.66614e-05
-5.77648e-06
3.335e-05
-5.70422e-06
2.93453e-05
-4.75442e-06
1.77082e-05
-3.11695e-06
6.13072e-06
-2.07641e-06
4.80548e-06
-1.54959e-06
4.73967e-06
-3.92309e-07
5.87521e-06
8.51597e-07
5.54747e-06
2.25405e-06
5.194e-06
2.28804e-06
3.70016e-06
-9.17404e-07
6.47974e-06
7.18545e-06
8.68743e-06
-1.33325e-05
5.42632e-06
-6.33515e-06
-1.71991e-07
4.23763e-05
-9.97146e-07
-5.23067e-07
-2.45745e-06
-2.48493e-05
-1.59079e-06
-5.19694e-06
-3.78722e-06
3.24183e-05
-7.23146e-06
-1.45304e-05
-8.77989e-06
-2.24738e-05
-1.03232e-05
-1.3263e-05
-1.19611e-05
-1.21846e-05
-1.07122e-05
-7.90775e-06
-6.10944e-06
2.30726e-05
-3.77384e-06
3.10467e-05
-1.63397e-06
2.79204e-05
7.83893e-07
1.68978e-05
7.48582e-07
6.53558e-06
3.85918e-07
5.79522e-06
1.60229e-07
5.64137e-06
5.91483e-07
6.38274e-06
1.15344e-06
5.91305e-06
1.71575e-06
5.62989e-06
1.38949e-06
4.64419e-06
8.41454e-07
5.15178e-06
3.9396e-06
6.3513e-06
-1.37226e-05
2.84573e-06
-3.10946e-06
-9.74797e-07
4.65051e-05
-1.27324e-06
-2.92751e-07
-3.37537e-06
-2.27708e-05
-2.14934e-06
-6.37293e-06
-2.09876e-06
3.25729e-05
-5.31987e-06
-1.19139e-05
-7.63641e-06
-2.00856e-05
-9.54228e-06
-1.10163e-05
-1.17726e-05
-9.4885e-06
-1.11423e-05
-7.53469e-06
-6.10163e-06
1.95211e-05
-2.21654e-06
2.7893e-05
1.51389e-06
2.51928e-05
4.49973e-06
1.57225e-05
3.47315e-06
7.87204e-06
2.33285e-06
7.24937e-06
1.57655e-06
6.68505e-06
1.41706e-06
6.95054e-06
1.38817e-06
6.34343e-06
1.32958e-06
6.09902e-06
8.48498e-07
5.41731e-06
2.00032e-06
2.96457e-06
2.1636e-06
2.70197e-06
-1.3123e-05
-1.30967e-07
-7.61583e-07
-6.3262e-07
4.74232e-05
-7.86771e-07
-2.78581e-07
-3.70685e-06
-1.9856e-05
-2.63923e-06
-7.13897e-06
-4.79847e-07
3.06386e-05
-3.16522e-06
-9.63775e-06
-6.11258e-06
-1.70998e-05
-8.24275e-06
-8.58008e-06
-1.08415e-05
-6.49079e-06
-1.10401e-05
-6.35179e-06
-6.49207e-06
1.65507e-05
-1.12038e-06
2.47106e-05
3.77037e-06
2.25241e-05
6.13177e-06
1.48393e-05
4.68576e-06
9.80364e-06
3.37411e-06
8.84927e-06
2.38089e-06
7.89251e-06
1.90847e-06
7.65043e-06
1.52859e-06
6.94008e-06
1.15894e-06
6.66812e-06
6.27712e-07
6.14474e-06
2.90734e-06
8.43886e-07
1.79454e-06
-7.9823e-07
-1.14133e-05
-2.27631e-06
2.8119e-07
4.60982e-07
4.51542e-05
2.50517e-07
-6.64722e-08
-3.33337e-06
-1.62251e-05
-2.85412e-06
-7.0357e-06
7.84936e-07
2.74779e-05
-1.2136e-06
-7.68578e-06
-4.50022e-06
-1.37366e-05
-6.65329e-06
-6.14365e-06
-9.31792e-06
-3.50221e-06
-1.00583e-05
-4.77557e-06
-6.42317e-06
1.44562e-05
-6.80179e-07
2.16918e-05
4.36429e-06
2.00771e-05
5.91167e-06
1.45998e-05
4.56234e-06
1.16375e-05
3.51908e-06
1.02119e-05
2.60935e-06
9.0472e-06
2.07726e-06
8.40129e-06
1.56509e-06
7.65148e-06
1.09805e-06
7.31462e-06
5.76982e-07
6.86227e-06
3.75221e-06
-7.64718e-07
2.72489e-06
-3.21673e-06
-8.87426e-06
-3.35104e-06
4.24426e-07
1.72719e-06
4.02488e-05
1.46694e-06
3.61782e-07
-2.44134e-06
-1.22093e-05
-2.69017e-06
-5.90537e-06
1.66506e-06
2.47332e-05
2.96378e-07
-5.93885e-06
-2.99863e-06
-1.02881e-05
-5.01715e-06
-3.85735e-06
-7.45074e-06
-8.10973e-07
-8.26328e-06
-3.34351e-06
-5.5137e-06
1.30664e-05
-7.98691e-07
1.90981e-05
3.20397e-06
1.80472e-05
4.30184e-06
1.45421e-05
3.57697e-06
1.27854e-05
3.03031e-06
1.11019e-05
2.3985e-06
9.96134e-06
1.96741e-06
9.08446e-06
1.481e-06
8.36472e-06
1.04432e-06
7.96222e-06
5.80646e-07
7.55107e-06
4.59817e-06
-1.69116e-06
4.5754e-06
-4.43079e-06
-5.93143e-06
-3.78594e-06
4.52479e-07
2.68208e-06
3.48781e-05
2.54578e-06
1.01023e-06
-1.32196e-06
-8.16567e-06
-2.19938e-06
-4.07644e-06
2.10607e-06
2.24126e-05
1.10928e-06
-4.23848e-06
-1.93784e-06
-7.03809e-06
-3.70628e-06
-1.82205e-06
-5.72375e-06
1.41989e-06
-6.46121e-06
-2.17897e-06
-4.47979e-06
1.19507e-05
-1.21184e-06
1.71563e-05
1.46343e-06
1.65513e-05
2.39992e-06
1.42163e-05
2.35731e-06
1.31988e-05
2.28683e-06
1.15221e-05
1.96786e-06
1.0591e-05
1.70043e-06
9.63957e-06
1.31893e-06
9.00944e-06
9.68468e-07
8.56544e-06
5.83286e-07
8.19603e-06
5.45039e-06
-1.95756e-06
6.73564e-06
-4.63348e-06
-2.96605e-06
-3.84513e-06
8.64597e-07
3.05769e-06
3.01563e-05
3.20172e-06
1.7885e-06
-2.53948e-07
-4.46714e-06
-1.5429e-06
-2.05442e-06
2.05982e-06
2.05012e-05
1.22787e-06
-2.69034e-06
-1.38503e-06
-4.22206e-06
-2.84353e-06
-9.75344e-08
-4.41623e-06
3.19222e-06
-5.12367e-06
-1.15141e-06
-3.73192e-06
1.09996e-05
-1.60998e-06
1.56203e-05
9.68713e-08
1.53487e-05
9.85247e-07
1.36874e-05
1.35494e-06
1.31711e-05
1.57456e-06
1.16548e-05
1.4901e-06
1.10016e-05
1.37235e-06
1.00705e-05
1.11417e-06
9.56061e-06
8.65588e-07
9.10193e-06
5.66046e-07
8.78327e-06
6.29036e-06
-1.68096e-06
8.64055e-06
-3.98449e-06
-3.75312e-07
-3.44776e-06
1.61248e-06
2.91829e-06
2.59469e-05
3.19348e-06
2.57927e-06
4.10141e-07
-1.40988e-06
-1.00467e-06
-1.74585e-07
1.74826e-06
1.89896e-05
9.5471e-07
-1.33796e-06
-1.20536e-06
-1.87542e-06
-2.37781e-06
1.3352e-06
-3.5808e-06
4.60511e-06
-4.33237e-06
-1.27496e-07
-3.35223e-06
1.03032e-05
-1.88959e-06
1.444e-05
-7.34321e-07
1.44442e-05
1.01575e-07
1.31497e-05
6.43824e-07
1.29704e-05
9.89152e-07
1.16658e-05
1.05473e-06
1.12704e-05
1.0504e-06
1.04045e-05
9.01018e-07
1.00233e-05
7.42992e-07
9.57178e-06
5.24616e-07
9.30869e-06
7.09437e-06
-1.05867e-06
9.94781e-06
-2.88618e-06
1.6818e-06
-2.76066e-06
2.44336e-06
2.42999e-06
2.25549e-05
2.64412e-06
3.22984e-06
5.79209e-07
9.08011e-07
-7.22442e-07
1.42039e-06
1.37311e-06
1.75955e-05
5.83796e-07
-1.45895e-07
-1.2167e-06
9.52315e-08
-2.14195e-06
2.51329e-06
-3.06683e-06
5.75679e-06
-3.86787e-06
9.20084e-07
-3.1571e-06
9.86548e-06
-2.03804e-06
1.35783e-05
-1.16499e-06
1.38066e-05
-4.0101e-07
1.26997e-05
1.6382e-07
1.2751e-05
5.40749e-07
1.16464e-05
6.95188e-07
1.14538e-05
7.6374e-07
1.06734e-05
7.01293e-07
1.04093e-05
6.15239e-07
9.98144e-06
4.68091e-07
9.77311e-06
7.84546e-06
-4.20791e-07
1.06579e-05
-1.79892e-06
3.25232e-06
-1.99461e-06
3.21898e-06
1.86484e-06
1.98495e-05
1.94609e-06
3.71632e-06
4.29285e-07
2.63669e-06
-6.44373e-07
2.70878e-06
1.05397e-06
1.62806e-05
2.77895e-07
9.43903e-07
-1.2823e-06
1.81242e-06
-2.03061e-06
3.51066e-06
-2.75977e-06
6.72622e-06
-3.59312e-06
1.98326e-06
-3.05325e-06
9.62966e-06
-2.10892e-06
1.29434e-05
-1.37522e-06
1.33553e-05
-6.91089e-07
1.23603e-05
-1.65735e-07
1.25746e-05
2.00594e-07
1.16363e-05
4.04332e-07
1.15894e-05
5.17665e-07
1.08996e-05
5.20697e-07
1.07338e-05
4.90405e-07
1.03391e-05
4.04792e-07
1.01803e-05
8.53508e-06
4.97431e-08
1.09459e-05
-9.81707e-07
4.46514e-06
-1.37193e-06
3.96745e-06
1.42957e-06
1.7607e-05
1.35729e-06
4.17125e-06
1.70287e-07
3.99639e-06
-6.98638e-07
3.76511e-06
8.06344e-07
1.50729e-05
4.43086e-08
1.96342e-06
-1.34359e-06
3.34415e-06
-1.97247e-06
4.38212e-06
-2.56034e-06
7.56233e-06
-3.38793e-06
3.02471e-06
-2.96523e-06
9.54069e-06
-2.12871e-06
1.24699e-05
-1.46955e-06
1.30246e-05
-8.70108e-07
1.21238e-05
-3.96671e-07
1.24495e-05
-5.38678e-08
1.16451e-05
1.72481e-07
1.17002e-05
3.11921e-07
1.10968e-05
3.6215e-07
1.10096e-05
3.72613e-07
1.06538e-05
3.39386e-07
1.05341e-05
9.15828e-06
3.04636e-07
1.10146e-05
-4.99276e-07
5.45016e-06
-9.9103e-07
4.71582e-06
1.0996e-06
1.58444e-05
9.44038e-07
4.61021e-06
-8.04272e-08
5.1584e-06
-7.53464e-07
4.61058e-06
6.01035e-07
1.4038e-05
-7.67261e-08
2.84609e-06
-1.38777e-06
4.77826e-06
-1.89789e-06
5.1176e-06
-2.37423e-06
8.28515e-06
-3.17907e-06
4.02428e-06
-2.85328e-06
9.55685e-06
-2.11688e-06
1.2122e-05
-1.51264e-06
1.27743e-05
-9.9286e-07
1.19676e-05
-5.63165e-07
1.23638e-05
-2.46146e-07
1.16718e-05
-9.76144e-09
1.17955e-05
1.42059e-07
1.1275e-05
2.26694e-07
1.1246e-05
2.66652e-07
1.09329e-05
2.74625e-07
1.08423e-05
9.71318e-06
4.24885e-07
1.09707e-05
-2.61471e-07
6.31289e-06
-7.43119e-07
5.38979e-06
9.26293e-07
1.44783e-05
7.03756e-07
5.07399e-06
-2.95076e-07
6.26047e-06
-8.36906e-07
5.31391e-06
4.6891e-07
1.309e-05
-1.63918e-07
3.65453e-06
-1.36956e-06
6.08397e-06
-1.8978e-06
5.86023e-06
-2.25653e-06
8.88372e-06
-2.98852e-06
4.92274e-06
-2.72602e-06
9.62753e-06
-2.09004e-06
1.18642e-05
-1.52918e-06
1.25714e-05
-1.08113e-06
1.18705e-05
-6.84179e-07
1.23018e-05
-3.9305e-07
1.17123e-05
-1.55745e-07
1.18798e-05
2.00644e-09
1.14361e-05
1.10595e-07
1.14489e-05
1.74868e-07
1.11774e-05
2.14227e-07
1.11103e-05
1.02001e-05
4.04575e-07
1.09312e-05
-1.38075e-07
7.00557e-06
-6.58971e-07
6.05304e-06
7.75093e-07
1.33995e-05
4.58666e-07
5.59638e-06
-4.11981e-07
7.20558e-06
-1.00529e-06
6.0682e-06
2.33346e-07
1.2252e-05
-1.28287e-06
5.28467e-06
-1.26287e-06
6.1465e-06
-1.89043e-06
6.67597e-06
-1.95539e-06
9.16443e-06
-2.73023e-06
5.83406e-06
-2.54301e-06
9.74649e-06
-2.02593e-06
1.16981e-05
-1.5139e-06
1.24017e-05
-1.13622e-06
1.1823e-05
-7.65779e-07
1.22518e-05
-5.03775e-07
1.17646e-05
-2.69001e-07
1.19515e-05
-1.1058e-07
1.15805e-05
1.45775e-08
1.16204e-05
9.50397e-08
1.13906e-05
1.58405e-07
1.13402e-05
1.06188e-05
3.84058e-07
1.08704e-05
2.54282e-07
7.25893e-06
-5.80344e-07
6.99593e-06
6.41879e-07
1.25577e-05
-2.80233e-07
6.65358e-06
1.14291e-07
6.8746e-06
-9.45631e-07
7.25471e-06
1.17157e-07
1.15714e-05
-7.07614e-07
6.18586e-06
-1.02236e-06
6.52789e-06
-1.76309e-06
7.55476e-06
-1.82756e-06
9.40613e-06
-2.5492e-06
6.65603e-06
-2.33011e-06
9.78633e-06
-1.94241e-06
1.16246e-05
-1.4714e-06
1.22477e-05
-1.16244e-06
1.18144e-05
-8.20142e-07
1.22088e-05
-5.84538e-07
1.18179e-05
-3.56805e-07
1.20099e-05
-2.00149e-07
1.1703e-05
-6.75273e-08
1.17631e-05
2.40403e-08
1.15704e-05
1.0238e-07
1.15334e-05
1.09618e-05
2.9167e-07
1.0843e-05
2.60934e-08
7.60645e-06
-4.29675e-07
7.52966e-06
4.40971e-07
1.20162e-05
-1.70258e-08
7.19984e-06
-2.84763e-07
7.17504e-06
-7.22235e-07
7.7879e-06
2.61944e-07
1.09139e-05
-5.70885e-07
7.05252e-06
-1.13425e-06
7.12468e-06
-1.66931e-06
8.18553e-06
-1.58419e-06
9.47448e-06
-2.40952e-06
7.53366e-06
-2.14686e-06
9.73312e-06
-1.86118e-06
1.16078e-05
-1.42596e-06
1.2088e-05
-1.1617e-06
1.18115e-05
-8.50138e-07
1.21593e-05
-6.35539e-07
1.18569e-05
-4.21895e-07
1.20473e-05
-2.71505e-07
1.17981e-05
-1.34246e-07
1.1867e-05
-3.50284e-08
1.17093e-05
5.26503e-08
1.16836e-05
1.12244e-05
2.67715e-07
1.07775e-05
-6.63884e-08
7.97591e-06
-5.19399e-07
8.02211e-06
4.52243e-07
1.13163e-05
-4.1244e-09
7.69627e-06
-4.15589e-07
7.59577e-06
-8.47723e-07
8.27606e-06
-1.46396e-07
1.04591e-05
-6.35051e-07
7.55054e-06
-1.0965e-06
7.59639e-06
-1.44441e-06
8.58935e-06
-1.53375e-06
9.67441e-06
-1.99141e-06
8.01433e-06
-1.87776e-06
9.76602e-06
-1.68957e-06
1.16297e-05
-1.34323e-06
1.19586e-05
-1.13529e-06
1.18129e-05
-8.52001e-07
1.20864e-05
-6.71011e-07
1.18806e-05
-4.61085e-07
1.20392e-05
-3.29069e-07
1.18642e-05
-1.8203e-07
1.19141e-05
-8.74135e-08
1.18066e-05
1.54332e-08
1.17714e-05
1.14068e-05
1.78246e-07
1.07241e-05
-6.24209e-08
8.22601e-06
-3.07068e-07
8.28116e-06
1.65507e-07
1.10234e-05
-1.02358e-07
7.97544e-06
-4.14228e-07
7.90925e-06
-6.57746e-07
8.5432e-06
-3.72883e-07
1.03196e-05
-6.97404e-07
7.87618e-06
-1.03958e-06
7.94035e-06
-1.2867e-06
8.86075e-06
-1.40811e-06
9.85646e-06
-1.71641e-06
8.3293e-06
-1.71434e-06
9.84075e-06
-1.54709e-06
1.16001e-05
-1.23709e-06
1.17951e-05
-1.10707e-06
1.18229e-05
-8.14351e-07
1.1939e-05
-6.98611e-07
1.19031e-05
-4.71447e-07
1.19513e-05
-3.6669e-07
1.18937e-05
-2.12044e-07
1.18923e-05
-1.2242e-07
1.1847e-05
-2.8784e-08
1.18061e-05
1.1488e-05
1.13041e-07
1.06658e-05
-5.69957e-08
8.39755e-06
-2.16525e-07
8.44378e-06
8.79794e-09
1.08818e-05
-1.81531e-07
8.16766e-06
-4.02858e-07
8.13071e-06
-5.72107e-07
8.71843e-06
-4.90772e-07
1.02966e-05
-7.27958e-07
8.11342e-06
-9.86469e-07
8.19908e-06
-1.17417e-06
9.05493e-06
-1.28487e-06
9.98921e-06
-1.49745e-06
8.54317e-06
-1.5229e-06
9.89259e-06
-1.38019e-06
1.15239e-05
-1.17835e-06
1.16658e-05
-1.02098e-06
1.17356e-05
-8.18174e-07
1.18104e-05
-6.73824e-07
1.18289e-05
-5.0159e-07
1.18506e-05
-3.80274e-07
1.18405e-05
-2.50524e-07
1.18297e-05
-1.47575e-07
1.18097e-05
-5.59616e-08
1.1778e-05
1.14847e-05
7.77669e-08
1.06019e-05
-5.7415e-08
8.5329e-06
-1.78774e-07
8.56564e-06
-7.27666e-08
1.07992e-05
-2.27129e-07
8.32216e-06
-4.00783e-07
8.30436e-06
-5.37185e-07
8.85586e-06
-5.34907e-07
1.03072e-05
-7.29314e-07
8.30783e-06
-9.33063e-07
8.40284e-06
-1.07923e-06
9.20224e-06
-1.16714e-06
1.00816e-05
-1.33086e-06
8.70705e-06
-1.35956e-06
9.92631e-06
-1.2428e-06
1.1427e-05
-1.09537e-06
1.15405e-05
-9.51957e-07
1.16143e-05
-7.9541e-07
1.16777e-05
-6.54395e-07
1.17104e-05
-5.12969e-07
1.17323e-05
-3.88438e-07
1.17377e-05
-2.72546e-07
1.17351e-05
-1.67245e-07
1.17252e-05
-7.40867e-08
1.17043e-05
1.14258e-05
6.36281e-08
1.05405e-05
-5.44175e-08
8.65095e-06
-1.65218e-07
8.67649e-06
-1.0788e-07
1.07456e-05
-2.50407e-07
8.46469e-06
-4.06771e-07
8.46073e-06
-5.25096e-07
8.97428e-06
-5.41156e-07
1.03251e-05
-7.14102e-07
8.48078e-06
-8.89243e-07
8.57799e-06
-1.00669e-06
9.31979e-06
-1.06891e-06
1.01444e-05
-1.21209e-06
8.85024e-06
-1.23916e-06
9.95406e-06
-1.13864e-06
1.13298e-05
-1.01982e-06
1.14255e-05
-8.92376e-07
1.14907e-05
-7.60538e-07
1.15501e-05
-6.33122e-07
1.1587e-05
-5.05134e-07
1.16084e-05
-3.8773e-07
1.16242e-05
-2.7882e-07
1.163e-05
-1.78491e-07
1.16286e-05
-8.53193e-08
1.16146e-05
1.13431e-05
5.19053e-08
1.04887e-05
-5.90073e-08
8.76187e-06
-1.64692e-07
8.78218e-06
-1.24653e-07
1.07059e-05
-2.61344e-07
8.60138e-06
-4.05053e-07
8.60443e-06
-5.13187e-07
9.08242e-06
-5.29013e-07
1.0341e-05
-6.86082e-07
8.63785e-06
-8.40741e-07
8.73264e-06
-9.39941e-07
9.419e-06
-9.89912e-07
1.01944e-05
-1.11374e-06
8.97408e-06
-1.13607e-06
9.97642e-06
-1.05277e-06
1.12468e-05
-9.48971e-07
1.13221e-05
-8.41471e-07
1.13836e-05
-7.2111e-07
1.14302e-05
-6.02743e-07
1.1469e-05
-4.91566e-07
1.14977e-05
-3.83748e-07
1.15168e-05
-2.80509e-07
1.15271e-05
-1.82507e-07
1.1531e-05
-8.89906e-08
1.15214e-05
1.12544e-05
5.32697e-08
1.04354e-05
-6.07122e-08
8.87585e-06
-1.71127e-07
8.89259e-06
-1.27332e-07
1.06621e-05
-2.62394e-07
8.73644e-06
-3.96217e-07
8.73826e-06
-5.00439e-07
9.18664e-06
-5.0884e-07
1.03494e-05
-6.57241e-07
8.78625e-06
-7.97047e-07
8.87245e-06
-8.85258e-07
9.50721e-06
-9.17225e-07