/*--------------------------------*- C++ -*----------------------------------*\
  =========                 |
  \\      /  F ield         | OpenFOAM: The Open Source CFD Toolbox
   \\    /   O peration     | Website:  https://openfoam.org
    \\  /    A nd           | Version:  dev
     \\/     M anipulation  |
\*---------------------------------------------------------------------------*/
FoamFile
{
    version     2.0;
    format      ascii;
    class       volScalarField;
    location    "1";
    object      pMean;
}
// * * * * * * * * * * * * * * * * * * * * * * * * * * * * * * * * * * * * * //

dimensions      [1 -1 -2 0 0 0 0];

internalField   nonuniform List<scalar> 
1875
(
107079
107079
107081
107078
107081
107078
107081
107076
107080
107076
107079
107073
107076
107071
107071
107069
107070
107068
107069
107068
107068
107068
107068
107067
107067
107005
107004
107006
107004
107006
107004
107006
107002
107005
107002
107004
106999
107002
106997
106998
106995
106996
106995
106995
106994
106994
106994
106994
106994
106994
106938
106938
106940
106938
106940
106938
106940
106937
106939
106936
106938
106934
106935
106931
106932
106929
106930
106928
106929
106928
106928
106927
106928
106927
106927
106867
106867
106868
106867
106868
106867
106868
106866
106868
106865
106866
106863
106864
106860
106861
106858
106859
106857
106858
106857
106857
106857
106857
106856
106856
106799
106798
106799
106798
106800
106798
106800
106798
106799
106797
106798
106794
106796
106791
106792
106790
106790
106789
106789
106788
106788
106788
106788
106787
106787
106725
106725
106726
106725
106726
106726
106727
106725
106726
106724
106724
106721
106722
106718
106719
106716
106717
106715
106716
106715
106715
106714
106715
106714
106714
106653
106653
106654
106653
106654
106654
106655
106654
106654
106652
106653
106649
106651
106646
106647
106644
106645
106643
106644
106643
106643
106642
106642
106642
106642
106578
106577
106579
106578
106578
106578
106579
106578
106578
106576
106577
106572
106576
106569
106571
106567
106568
106567
106568
106567
106567
106567
106567
106567
106567
106502
106502
106503
106502
106501
106503
106504
106502
106502
106501
106502
106495
106502
106493
106494
106491
106493
106491
106492
106491
106492
106491
106492
106491
106492
106424
106423
106425
106423
106422
106423
106424
106420
106423
106420
106423
106413
106425
106412
106414
106411
106413
106413
106414
106413
106414
106414
106414
106414
106414
106345
106344
106346
106343
106345
106343
106344
106338
106345
106337
106342
106329
106345
106330
106329
106330
106333
106334
106335
106335
106335
106335
106336
106336
106336
106262
106262
106264
106259
106266
106258
106258
106253
106265
106252
106256
106247
106258
106244
106244
106247
106251
106253
106254
106254
106255
106255
106256
106256
106256
106179
106179
106181
106175
106186
106174
106175
106171
106183
106170
106172
106168
106173
106163
106165
106167
106170
106171
106173
106173
106174
106174
106175
106175
106176
106094
106093
106096
106089
106100
106089
106092
106088
106095
106086
106087
106088
106087
106083
106085
106086
106088
106089
106090
106091
106091
106092
106092
106093
106093
106008
106007
106010
106005
106012
106005
106009
106005
106008
106003
106003
106005
106004
106003
106003
106004
106005
106006
106007
106007
106008
106008
106009
106009
106010
105920
105919
105924
105918
105922
105919
105923
105919
105921
105919
105918
105921
105919
105920
105919
105920
105920
105921
105922
105922
105923
105923
105924
105924
105925
105832
105830
105835
105831
105832
105832
105836
105833
105834
105833
105833
105836
105833
105835
105834
105835
105835
105836
105836
105837
105837
105837
105838
105837
105839
105743
105743
105744
105743
105743
105745
105747
105746
105746
105746
105746
105748
105746
105748
105747
105748
105748
105749
105749
105750
105750
105750
105751
105750
105751
105655
105655
105654
105656
105654
105656
105657
105658
105657
105658
105657
105660
105657
105660
105659
105660
105660
105661
105661
105662
105662
105662
105662
105662
105662
105565
105566
105564
105567
105564
105567
105566
105568
105567
105568
105568
105570
105568
105570
105569
105571
105570
105572
105572
105573
105573
105573
105573
105573
105573
105475
105476
105474
105476
105474
105476
105475
105477
105476
105478
105477
105479
105477
105480
105479
105480
105480
105482
105482
105483
105483
105483
105483
105483
105483
105384
105384
105382
105384
105382
105384
105384
105384
105383
105386
105385
105387
105386
105388
105388
105389
105389
105390
105390
105391
105391
105392
105391
105392
105391
105291
105292
105289
105291
105289
105291
105291
105291
105290
105293
105292
105295
105293
105296
105295
105297
105296
105298
105298
105299
105299
105299
105299
105299
105298
105198
105198
105196
105197
105196
105197
105197
105197
105196
105199
105199
105201
105200
105202
105202
105203
105202
105204
105204
105205
105205
105205
105205
105205
105205
105104
105104
105101
105102
105102
105102
105102
105102
105102
105104
105104
105106
105105
105108
105107
105109
105108
105109
105109
105110
105110
105110
105110
105110
105109
105008
105008
105006
105007
105006
105007
105006
105007
105006
105009
105008
105011
105010
105013
105012
105013
105013
105013
105013
105014
105014
105014
105014
105013
105013
104912
104912
104910
104911
104910
104911
104910
104912
104910
104913
104912
104915
104914
104917
104916
104917
104916
104917
104916
104917
104916
104917
104916
104916
104916
104815
104815
104813
104814
104813
104815
104813
104816
104813
104816
104815
104818
104817
104820
104819
104820
104819
104820
104819
104819
104819
104819
104819
104819
104819
104717
104717
104715
104718
104715
104718
104716
104719
104716
104719
104718
104720
104719
104722
104721
104722
104721
104722
104721
104721
104721
104721
104720
104720
104720
104619
104619
104618
104620
104618
104620
104618
104621
104618
104621
104619
104621
104621
104623
104623
104624
104623
104623
104622
104622
104622
104622
104622
104622
104622
104520
104520
104519
104522
104519
104522
104519
104523
104520
104522
104520
104522
104522
104524
104523
104524
104523
104524
104523
104523
104523
104523
104522
104522
104522
104421
104421
104420
104423
104420
104422
104420
104423
104420
104422
104421
104422
104422
104424
104423
104424
104423
104424
104423
104423
104423
104423
104423
104423
104423
104321
104322
104321
104323
104321
104323
104321
104323
104321
104322
104321
104322
104322
104323
104323
104324
104323
104324
104323
104323
104323
104323
104323
104323
104323
104221
104221
104221
104223
104221
104222
104220
104222
104220
104222
104221
104222
104221
104223
104222
104223
104223
104223
104223
104223
104223
104223
104223
104223
104223
104120
104121
104120
104122
104120
104121
104120
104121
104120
104121
104120
104121
104121
104122
104121
104122
104122
104122
104122
104122
104122
104122
104122
104122
104122
104019
104020
104019
104021
104019
104020
104019
104020
104019
104020
104019
104020
104020
104021
104020
104021
104021
104021
104021
104021
104021
104021
104021
104021
104021
103918
103918
103918
103919
103918
103919
103918
103919
103918
103919
103918
103919
103918
103919
103919
103920
103920
103920
103920
103920
103920
103920
103920
103920
103920
103817
103817
103817
103817
103817
103817
103816
103817
103817
103817
103817
103817
103817
103818
103818
103818
103818
103819
103818
103819
103819
103819
103819
103819
103819
103715
103715
103715
103716
103715
103715
103715
103716
103715
103716
103715
103716
103716
103716
103716
103717
103717
103717
103717
103717
103717
103717
103717
103717
103717
103614
103614
103614
103614
103614
103614
103614
103614
103614
103614
103614
103614
103614
103615
103615
103615
103615
103615
103615
103615
103615
103615
103615
103615
103615
103512
103512
103512
103512
103512
103512
103512
103512
103512
103512
103512
103512
103512
103513
103513
103513
103513
103513
103513
103514
103514
103514
103514
103514
103514
103410
103410
103410
103410
103410
103410
103410
103410
103410
103410
103410
103411
103411
103411
103411
103411
103411
103412
103412
103412
103412
103412
103412
103412
103412
103308
103308
103308
103308
103308
103308
103308
103308
103309
103309
103309
103309
103309
103309
103309
103309
103310
103310
103310
103310
103310
103310
103310
103310
103310
103207
103207
103207
103207
103207
103207
103207
103207
103207
103207
103207
103207
103207
103207
103207
103208
103208
103208
103208
103208
103208
103208
103208
103208
103208
103105
103105
103105
103105
103105
103105
103105
103105
103105
103105
103105
103105
103105
103105
103106
103106
103106
103106
103106
103106
103106
103106
103106
103106
103106
103003
103003
103003
103003
103003
103003
103003
103003
103003
103003
103003
103003
103003
103004
103004
103004
103004
103004
103004
103004
103004
103004
103004
103004
103004
102901
102901
102901
102901
102901
102901
102901
102901
102901
102901
102901
102902
102902
102902
102902
102902
102902
102902
102902
102902
102902
102902
102902
102902
102902
102799
102799
102799
102799
102799
102799
102799
102799
102799
102800
102800
102800
102800
102800
102800
102800
102800
102800
102800
102800
102800
102800
102800
102800
102800
102698
102698
102698
102698
102698
102698
102698
102698
102698
102698
102698
102698
102698
102698
102698
102698
102698
102698
102698
102698
102699
102699
102699
102699
102699
102596
102596
102596
102596
102596
102596
102596
102596
102596
102596
102596
102596
102596
102596
102596
102596
102596
102597
102597
102597
102597
102597
102597
102597
102597
102494
102494
102494
102494
102494
102494
102494
102494
102494
102494
102494
102494
102494
102494
102495
102495
102495
102495
102495
102495
102495
102495
102495
102495
102495
102392
102392
102392
102392
102392
102392
102392
102392
102392
102392
102392
102393
102393
102393
102393
102393
102393
102393
102393
102393
102393
102393
102393
102393
102393
102290
102290
102290
102290
102290
102291
102291
102291
102291
102291
102291
102291
102291
102291
102291
102291
102291
102291
102291
102291
102291
102291
102291
102291
102291
102189
102189
102189
102189
102189
102189
102189
102189
102189
102189
102189
102189
102189
102189
102189
102189
102189
102189
102189
102189
102189
102189
102189
102189
102189
102087
102087
102087
102087
102087
102087
102087
102087
102087
102087
102087
102087
102087
102087
102087
102087
102087
102087
102087
102087
102087
102087
102087
102087
102087
101985
101985
101985
101985
101985
101985
101985
101985
101985
101985
101985
101985
101985
101985
101985
101985
101985
101985
101986
101986
101986
101986
101986
101986
101986
101883
101883
101883
101883
101883
101883
101883
101883
101883
101883
101883
101884
101884
101884
101884
101884
101884
101884
101884
101884
101884
101884
101884
101884
101884
101782
101782
101782
101782
101782
101782
101782
101782
101782
101782
101782
101782
101782
101782
101782
101782
101782
101782
101782
101782
101782
101782
101782
101782
101782
101680
101680
101680
101680
101680
101680
101680
101680
101680
101680
101680
101680
101680
101680
101680
101680
101680
101680
101680
101680
101680
101680
101680
101680
101680
101578
101578
101578
101578
101578
101578
101578
101578
101578
101578
101578
101578
101578
101578
101578
101578
101578
101578
101578
101578
101578
101578
101578
101578
101578
101476
101476
101476
101476
101476
101476
101476
101476
101476
101476
101476
101476
101476
101476
101476
101476
101476
101476
101476
101476
101476
101476
101476
101476
101476
101374
101374
101374
101374
101374
101374
101374
101374
101374
101374
101374
101374
101374
101374
101374
101374
101375
101375
101375
101375
101375
101375
101375
101375
101375
101273
101273
101273
101273
101273
101273
101273
101273
101273
101273
101273
101273
101273
101273
101273
101273
101273
101273
101273
101273
101273
101273
101273
101273
101273
101171
101171
101171
101171
101171
101171
101171
101171
101171
101171
101171
101171
101171
101171
101171
101171
101171
101171
101171
101171
101171
101171
101171
101171
101171
101069
101069
101069
101069
101069
101069
101069
101069
101069
101069
101069
101069
101069
101069
101069
101069
101069
101069
101069
101069
101069
101069
101069
101069
101069
100967
100967
100967
100967
100967
100967
100967
100967
100967
100967
100967
100967
100967
100967
100967
100967
100967
100967
100967
100967
100967
100967
100967
100967
100967
100865
100865
100865
100865
100865
100865
100865
100865
100865
100865
100865
100865
100865
100865
100865
100865
100865
100865
100865
100865
100865
100865
100865
100865
100865
100764
100764
100764
100764
100764
100764
100764
100764
100764
100764
100764
100764
100764
100764
100764
100764
100764
100764
100764
100764
100764
100764
100764
100764
100764
100662
100662
100662
100662
100662
100662
100662
100662
100662
100662
100662
100662
100662
100662
100662
100662
100662
100662
100662
100662
100662
100662
100662
100662
100662
100560
100560
100560
100560
100560
100560
100560
100560
100560
100560
100560
100560
100560
100560
100560
100560
100560
100560
100560
100560
100560
100560
100560
100560
100560
100458
100458
100458
100458
100458
100458
100458
100458
100458
100458
100458
100458
100458
100458
100458
100458
100458
100458
100458
100458
100458
100458
100458
100458
100458
100356
100356
100356
100356
100356
100356
100356
100356
100356
100356
100356
100356
100356
100356
100356
100356
100356
100356
100356
100356
100356
100356
100356
100356
100356
100254
100254
100254
100254
100254
100254
100254
100254
100254
100254
100254
100254
100254
100254
100254
100254
100254
100254
100254
100255
100255
100255
100255
100255
100255
100153
100153
100153
100153
100153
100153
100153
100153
100153
100153
100153
100153
100153
100153
100153
100153
100153
100153
100153
100153
100153
100153
100153
100153
100153
100051
100051
100051
100051
100051
100051
100051
100051
100051
100051
100051
100051
100051
100051
100051
100051
100051
100051
100051
100051
100051
100051
100051
100051
100051
)
;

boundaryField
{
    inlet
    {
        type            calculated;
        value           nonuniform List<scalar> 
25
(
107072
107073
107075
107070
107076
107072
107076
107068
107075
107070
107073
107066
107070
107065
107064
107062
107063
107061
107062
107061
107061
107060
107060
107060
107060
)
;
    }
    outlet
    {
        type            calculated;
        value           uniform 100000;
    }
    walls
    {
        type            calculated;
        value           nonuniform List<scalar> 
150
(
107079
107005
106938
106867
106799
106725
106653
106578
106502
106424
106345
106262
106179
106094
106008
105920
105832
105743
105655
105565
105475
105384
105291
105198
105104
105008
104912
104815
104717
104619
104520
104421
104321
104221
104120
104019
103918
103817
103715
103614
103512
103410
103308
103207
103105
103003
102901
102799
102698
102596
102494
102392
102290
102189
102087
101985
101883
101782
101680
101578
101476
101374
101273
101171
101069
100967
100865
100764
100662
100560
100458
100356
100254
100153
100051
107067
106994
106927
106856
106787
106714
106642
106567
106492
106414
106336
106256
106176
106093
106010
105925
105839
105751
105662
105573
105483
105391
105298
105205
105109
105013
104916
104819
104720
104622
104522
104423
104323
104223
104122
104021
103920
103819
103717
103615
103514
103412
103310
103208
103106
103004
102902
102800
102699
102597
102495
102393
102291
102189
102087
101986
101884
101782
101680
101578
101476
101375
101273
101171
101069
100967
100865
100764
100662
100560
100458
100356
100255
100153
100051
)
;
    }
    frontAndBack
    {
        type            empty;
    }
}


// ************************************************************************* //
