/*--------------------------------*- C++ -*----------------------------------*\
  =========                 |
  \\      /  F ield         | OpenFOAM: The Open Source CFD Toolbox
   \\    /   O peration     | Website:  https://openfoam.org
    \\  /    A nd           | Version:  dev
     \\/     M anipulation  |
\*---------------------------------------------------------------------------*/
FoamFile
{
    version     2.0;
    format      ascii;
    class       volVectorField;
    location    "1";
    object      U.air;
}
// * * * * * * * * * * * * * * * * * * * * * * * * * * * * * * * * * * * * * //

dimensions      [0 1 -1 0 0 0 0];

internalField   nonuniform List<vector> 
1875
(
(-0.000954788 0.496772 0)
(-0.0040659 0.481054 0)
(0.00334642 0.483877 0)
(-0.00178334 0.48142 0)
(-0.00271944 0.481713 0)
(-0.000663441 0.483509 0)
(0.00802191 0.488003 0)
(0.00518155 0.477861 0)
(0.00824777 0.480487 0)
(0.0086737 0.480097 0)
(0.0136103 0.485239 0)
(0.0162695 0.480642 0)
(0.0191788 0.477099 0)
(0.0272641 0.482402 0)
(0.028658 0.4812 0)
(0.0305703 0.496067 0)
(0.0276832 0.497414 0)
(0.0318567 0.497524 0)
(0.0261221 0.497078 0)
(0.0248856 0.496297 0)
(0.0192494 0.497106 0)
(0.0175214 0.500263 0)
(0.0116421 0.500438 0)
(0.0105997 0.504042 0)
(0.00308567 0.515595 0)
(0.0112071 0.316191 0)
(-0.0183854 0.308305 0)
(0.0181363 0.310505 0)
(-0.00688175 0.3321 0)
(-0.00204909 0.314045 0)
(0.00266038 0.296752 0)
(0.0375354 0.301351 0)
(0.0375358 0.319701 0)
(0.0354723 0.311514 0)
(0.0440818 0.30443 0)
(0.0644898 0.29466 0)
(0.0963704 0.307226 0)
(0.101153 0.302547 0)
(0.112559 0.303702 0)
(0.11755 0.314773 0)
(0.104147 0.317742 0)
(0.0777865 0.313909 0)
(0.0813176 0.318972 0)
(0.0657697 0.326756 0)
(0.0583114 0.329471 0)
(0.0393548 0.329234 0)
(0.0315194 0.327109 0)
(0.0161515 0.325709 0)
(0.00850908 0.324001 0)
(-0.00262744 0.318575 0)
(0.00816543 0.283555 0)
(-0.0315705 0.260561 0)
(-0.000325407 0.255022 0)
(-0.0154592 0.282141 0)
(-0.0087978 0.255124 0)
(0.00268984 0.229521 0)
(0.041082 0.231562 0)
(0.0527863 0.266991 0)
(0.0427523 0.256586 0)
(0.0531647 0.239737 0)
(0.0784131 0.216048 0)
(0.117745 0.226322 0)
(0.144872 0.240606 0)
(0.153105 0.2463 0)
(0.165945 0.26441 0)
(0.146704 0.316774 0)
(0.103505 0.300135 0)
(0.0903886 0.286007 0)
(0.0744656 0.292979 0)
(0.0684645 0.297528 0)
(0.0531744 0.297298 0)
(0.04664 0.297103 0)
(0.0288412 0.29669 0)
(0.021049 0.296199 0)
(0.00261215 0.294189 0)
(0.0127665 0.314946 0)
(-0.0297551 0.298382 0)
(-0.0105342 0.270055 0)
(-0.0125135 0.312118 0)
(-0.0128094 0.272525 0)
(-0.00950477 0.226215 0)
(0.0333648 0.224784 0)
(0.0492476 0.292716 0)
(0.0515211 0.287971 0)
(0.0506101 0.246919 0)
(0.0802021 0.205775 0)
(0.117771 0.221512 0)
(0.148939 0.245126 0)
(0.158388 0.258201 0)
(0.167935 0.288796 0)
(0.154137 0.362736 0)
(0.113915 0.348964 0)
(0.0945104 0.322101 0)
(0.0775733 0.321639 0)
(0.0705143 0.324381 0)
(0.0542464 0.324058 0)
(0.0474125 0.325139 0)
(0.0289691 0.325273 0)
(0.020471 0.32455 0)
(0.00136642 0.316163 0)
(0.0124051 0.303633 0)
(-0.0230333 0.29558 0)
(-0.0190763 0.24098 0)
(-0.0138497 0.288624 0)
(-0.0113895 0.26267 0)
(-0.0180947 0.191901 0)
(0.0231998 0.178106 0)
(0.0479658 0.25559 0)
(0.0653147 0.261145 0)
(0.0484379 0.216402 0)
(0.080225 0.155387 0)
(0.119365 0.174813 0)
(0.157911 0.207952 0)
(0.173048 0.233699 0)
(0.170517 0.269133 0)
(0.156401 0.370692 0)
(0.125231 0.36181 0)
(0.0997054 0.325692 0)
(0.0801588 0.319812 0)
(0.0739729 0.323059 0)
(0.0566958 0.322123 0)
(0.0504059 0.324638 0)
(0.0314514 0.325314 0)
(0.0244452 0.325238 0)
(0.00429398 0.317971 0)
(0.00828802 0.321582 0)
(-0.0221414 0.330692 0)
(-0.019783 0.256729 0)
(-0.0205774 0.304535 0)
(-0.0215366 0.283823 0)
(-0.0292905 0.19796 0)
(0.0198715 0.159967 0)
(0.0570131 0.254951 0)
(0.0847981 0.28723 0)
(0.05224 0.22535 0)
(0.0904749 0.136579 0)
(0.125727 0.156899 0)
(0.166034 0.195179 0)
(0.186493 0.245486 0)
(0.17194 0.303866 0)
(0.152739 0.407872 0)
(0.133515 0.406595 0)
(0.100552 0.365321 0)
(0.0794467 0.344266 0)
(0.07325 0.345397 0)
(0.0559184 0.344573 0)
(0.0494658 0.348202 0)
(0.0305585 0.348829 0)
(0.0239857 0.349694 0)
(0.00452155 0.342794 0)
(0.0033105 0.319418 0)
(-0.018129 0.32711 0)
(-0.0167685 0.242875 0)
(-0.0131014 0.297653 0)
(-0.0265631 0.279817 0)
(-0.0395593 0.158926 0)
(0.0237144 0.0990402 0)
(0.0630583 0.20704 0)
(0.112093 0.27273 0)
(0.0682109 0.204487 0)
(0.108266 0.0803288 0)
(0.133841 0.113685 0)
(0.163481 0.15618 0)
(0.18806 0.229123 0)
(0.181297 0.308825 0)
(0.162002 0.41453 0)
(0.143718 0.420408 0)
(0.116624 0.383355 0)
(0.0861737 0.351199 0)
(0.0784419 0.350422 0)
(0.0554274 0.348353 0)
(0.0493842 0.352206 0)
(0.0282911 0.35213 0)
(0.0237653 0.35261 0)
(0.00482869 0.348281 0)
(0.00417035 0.334303 0)
(-0.0218986 0.349814 0)
(-0.014899 0.253188 0)
(0.0119303 0.316057 0)
(-0.0175561 0.298447 0)
(-0.0204093 0.139342 0)
(0.0292702 0.0586687 0)
(0.0744383 0.189723 0)
(0.120078 0.289756 0)
(0.0914666 0.214767 0)
(0.133617 0.0542318 0)
(0.139215 0.111137 0)
(0.15579 0.140822 0)
(0.186582 0.226076 0)
(0.185353 0.332063 0)
(0.166193 0.444467 0)
(0.147813 0.453121 0)
(0.124541 0.426736 0)
(0.0882113 0.383607 0)
(0.0794206 0.378655 0)
(0.0541749 0.374116 0)
(0.0481229 0.375366 0)
(0.0272028 0.373436 0)
(0.0243111 0.371927 0)
(0.00567604 0.37019 0)
(0.00483528 0.340951 0)
(-0.027064 0.348395 0)
(-0.0109091 0.218035 0)
(0.0621637 0.306256 0)
(0.0226267 0.285725 0)
(0.0420396 0.0802806 0)
(0.0569491 0.00597427 0)
(0.092946 0.14168 0)
(0.124491 0.269838 0)
(0.119701 0.172862 0)
(0.175075 0.010597 0)
(0.144751 0.112299 0)
(0.140799 0.114998 0)
(0.189638 0.19752 0)
(0.18886 0.329162 0)
(0.192073 0.451938 0)
(0.16136 0.46839 0)
(0.134963 0.450257 0)
(0.0892467 0.400365 0)
(0.0789259 0.390825 0)
(0.0504795 0.383597 0)
(0.0435155 0.382428 0)
(0.0203609 0.377803 0)
(0.0206507 0.375293 0)
(0.00351224 0.378824 0)
(0.0134232 0.356818 0)
(-0.02738 0.357855 0)
(0.0121966 0.176849 0)
(0.0744697 0.287492 0)
(0.0766503 0.276261 0)
(0.125473 0.0550528 0)
(0.14629 0.00560407 0)
(0.110333 0.159032 0)
(0.109866 0.265749 0)
(0.168555 0.144359 0)
(0.244488 0.00737764 0)
(0.166139 0.167688 0)
(0.148926 0.0989298 0)
(0.222818 0.165463 0)
(0.207558 0.320354 0)
(0.216794 0.470584 0)
(0.16181 0.508154 0)
(0.136923 0.503419 0)
(0.0890919 0.444254 0)
(0.0758297 0.423219 0)
(0.0449416 0.412103 0)
(0.038348 0.406709 0)
(0.0153915 0.396374 0)
(0.0189587 0.388502 0)
(0.00428312 0.395824 0)
(0.020846 0.359146 0)
(-0.0270123 0.338643 0)
(0.0491041 0.125041 0)
(0.0460517 0.267963 0)
(0.0621203 0.229591 0)
(0.179802 -0.00691717 0)
(0.23215 0.0191447 0)
(0.121961 0.203365 0)
(0.0505549 0.23104 0)
(0.201704 0.0570486 0)
(0.29523 0.0196035 0)
(0.185452 0.22211 0)
(0.135208 0.0843926 0)
(0.259492 0.135528 0)
(0.217791 0.328261 0)
(0.218817 0.499583 0)
(0.155498 0.548099 0)
(0.127119 0.532709 0)
(0.0752503 0.470053 0)
(0.0588923 0.445034 0)
(0.0299763 0.425358 0)
(0.0257367 0.414483 0)
(0.00477192 0.399237 0)
(0.0135557 0.389141 0)
(0.00312883 0.407088 0)
(0.0179986 0.370906 0)
(-0.0393683 0.317351 0)
(0.0902657 0.0922455 0)
(0.0043062 0.294707 0)
(0.0348772 0.156489 0)
(0.225639 -0.0751638 0)
(0.206992 0.0387376 0)
(0.000725673 0.3159 0)
(0.0270076 0.202642 0)
(0.26964 -0.0459032 0)
(0.261605 0.0314139 0)
(0.130647 0.297081 0)
(0.133271 0.061642 0)
(0.27632 0.084828 0)
(0.185744 0.319333 0)
(0.161505 0.518181 0)
(0.0934543 0.592962 0)
(0.0779527 0.589531 0)
(0.0346508 0.52154 0)
(0.0361615 0.478264 0)
(0.00667606 0.449091 0)
(0.00650222 0.434573 0)
(-0.0122933 0.411505 0)
(0.000265097 0.395178 0)
(-0.00654652 0.415527 0)
(0.0107508 0.399897 0)
(-0.0749617 0.27761 0)
(0.0961914 0.0481458 0)
(-0.0673836 0.325559 0)
(0.0191939 0.0755783 0)
(0.169609 -0.13856 0)
(0.0859606 0.154102 0)
(-0.190047 0.356827 0)
(0.0568078 0.0231118 0)
(0.216262 -0.124249 0)
(0.149809 0.0835138 0)
(-0.00388254 0.317212 0)
(0.116565 -0.0412562 0)
(0.167681 0.0388279 0)
(0.0446631 0.323811 0)
(-0.00838482 0.52758 0)
(-0.0616696 0.622772 0)
(-0.0279853 0.600124 0)
(-0.0299142 0.520413 0)
(-0.00452519 0.47966 0)
(-0.0251221 0.459876 0)
(-0.0184839 0.441972 0)
(-0.0397167 0.415986 0)
(-0.0281111 0.389262 0)
(-0.0176433 0.402723 0)
(-0.00930478 0.451884 0)
(-0.0823616 0.245283 0)
(0.0528595 0.0528462 0)
(-0.0731525 0.366256 0)
(0.0133973 0.0311449 0)
(0.0621921 -0.0831981 0)
(-0.0401197 0.302149 0)
(-0.1344 0.30357 0)
(0.0639209 -0.0853116 0)
(0.0755158 -0.0773594 0)
(-0.0140327 0.157586 0)
(-0.0296165 0.288405 0)
(0.0646945 -0.0791902 0)
(0.00319639 0.14051 0)
(-0.124493 0.379039 0)
(-0.13386 0.526066 0)
(-0.149274 0.589845 0)
(-0.0720076 0.556352 0)
(-0.0556686 0.507381 0)
(-0.0334375 0.482325 0)
(-0.046386 0.47275 0)
(-0.0461773 0.461011 0)
(-0.0751783 0.430141 0)
(-0.0569797 0.37916 0)
(-0.0311908 0.370424 0)
(-0.0210421 0.500615 0)
(-0.0845774 0.221093 0)
(0.0211649 0.0609202 0)
(-0.0500496 0.378838 0)
(-0.0260115 -0.00920372 0)
(0.0126787 -0.0761935 0)
(-0.00908141 0.352208 0)
(-0.0708424 0.271123 0)
(0.0100956 -0.153764 0)
(0.0216722 -0.0794869 0)
(-0.0591249 0.178491 0)
(-0.0120203 0.253295 0)
(0.0329661 -0.0544076 0)
(-0.0597627 0.238838 0)
(-0.146713 0.43222 0)
(-0.157841 0.523288 0)
(-0.152807 0.555765 0)
(-0.0844708 0.512729 0)
(-0.0705031 0.492804 0)
(-0.0560227 0.483795 0)
(-0.0688569 0.483512 0)
(-0.0712427 0.475793 0)
(-0.097394 0.431753 0)
(-0.0794799 0.354131 0)
(-0.0462504 0.317341 0)
(-0.028769 0.567171 0)
(-0.0948335 0.217837 0)
(0.0153486 0.0630479 0)
(-0.0429282 0.428427 0)
(-0.0625736 -0.0107103 0)
(-0.0323343 -0.0823493 0)
(0.00311378 0.359663 0)
(-0.021834 0.273417 0)
(-0.0151329 -0.170622 0)
(-0.0118532 -0.0413695 0)
(-0.0738519 0.183204 0)
(-0.0116375 0.205989 0)
(0.0241306 -0.0140821 0)
(-0.0741708 0.341257 0)
(-0.135828 0.478301 0)
(-0.150393 0.521295 0)
(-0.130527 0.518116 0)
(-0.0890616 0.485608 0)
(-0.0772173 0.488605 0)
(-0.0714051 0.488498 0)
(-0.0746112 0.490773 0)
(-0.0777536 0.488515 0)
(-0.0985633 0.443406 0)
(-0.0995978 0.345242 0)
(-0.0722286 0.243761 0)
(-0.0324691 0.640423 0)
(-0.109648 0.205659 0)
(-0.0174189 0.0421624 0)
(-0.0282037 0.452022 0)
(-0.0923895 -0.0149369 0)
(-0.0782085 -0.12425 0)
(-0.0114447 0.325079 0)
(0.0157837 0.280929 0)
(-0.034293 -0.160695 0)
(-0.0137519 -0.0318807 0)
(-0.0673319 0.178985 0)
(-0.00753032 0.166265 0)
(0.0128851 0.0209473 0)
(-0.0660107 0.404875 0)
(-0.109874 0.51062 0)
(-0.128458 0.514745 0)
(-0.111523 0.498829 0)
(-0.0968539 0.470508 0)
(-0.0873974 0.479466 0)
(-0.0778235 0.481249 0)
(-0.06938 0.488676 0)
(-0.0665236 0.498921 0)
(-0.0786514 0.455195 0)
(-0.109434 0.339331 0)
(-0.0880762 0.135532 0)
(-0.000624238 0.698147 0)
(-0.0908572 0.186979 0)
(-0.0410945 0.00372693 0)
(-0.0135415 0.479342 0)
(-0.0868307 0.00507452 0)
(-0.0966013 -0.148124 0)
(-0.0427559 0.265111 0)
(0.0179403 0.291374 0)
(-0.02694 -0.131083 0)
(-0.0125118 -0.0207411 0)
(-0.0496726 0.175363 0)
(-0.000628525 0.135619 0)
(0.0109103 0.0518113 0)
(-0.0572098 0.463077 0)
(-0.0889325 0.54051 0)
(-0.111858 0.52388 0)
(-0.101926 0.493566 0)
(-0.103075 0.465739 0)
(-0.092891 0.469983 0)
(-0.0773064 0.468523 0)
(-0.0522873 0.478169 0)
(-0.0464468 0.495471 0)
(-0.0185802 0.47931 0)
(-0.0891034 0.337441 0)
(-0.0564384 0.0495078 0)
(0.0329011 0.695742 0)
(-0.0363856 0.18593 0)
(-0.0541301 -0.0229726 0)
(-0.0136208 0.473093 0)
(-0.0531338 0.0291875 0)
(-0.0909966 -0.142306 0)
(-0.0660254 0.223044 0)
(0.00124447 0.278006 0)
(-0.0191729 -0.107216 0)
(-0.0339996 -0.0124866 0)
(-0.0423721 0.159915 0)
(0.00300352 0.117762 0)
(0.00244331 0.079362 0)
(-0.0561112 0.500494 0)
(-0.0843007 0.56391 0)
(-0.102481 0.529531 0)
(-0.098731 0.496498 0)
(-0.104971 0.463137 0)
(-0.0933521 0.451594 0)
(-0.072771 0.440736 0)
(-0.0425687 0.457808 0)
(-0.0321058 0.464371 0)
(0.0256169 0.480373 0)
(-0.0339823 0.346673 0)
(-0.010178 0.0211183 0)
(0.0423406 0.671352 0)
(0.00636722 0.221684 0)
(-0.0314782 -0.0228424 0)
(-0.0152498 0.477417 0)
(-0.0290553 0.062241 0)
(-0.0870359 -0.119065 0)
(-0.06627 0.209497 0)
(-0.0325405 0.279957 0)
(-0.0411521 -0.0772656 0)
(-0.0610842 -0.00735461 0)
(-0.0449674 0.132791 0)
(0.00612255 0.105035 0)
(-0.00640923 0.105559 0)
(-0.0602931 0.541554 0)
(-0.090697 0.585811 0)
(-0.10128 0.539542 0)
(-0.101676 0.499666 0)
(-0.104544 0.462856 0)
(-0.0894206 0.438317 0)
(-0.0742518 0.421077 0)
(-0.0418709 0.441699 0)
(-0.0343906 0.432451 0)
(0.0237754 0.467411 0)
(0.00586035 0.356754 0)
(0.0157471 0.0286591 0)
(0.028133 0.631983 0)
(0.0322849 0.241534 0)
(-0.00383585 -0.00888104 0)
(-0.00964773 0.490503 0)
(-0.0141741 0.0924759 0)
(-0.0900014 -0.0973576 0)
(-0.0509579 0.201138 0)
(-0.0480825 0.289627 0)
(-0.0644127 -0.0653656 0)
(-0.0716286 -0.00901843 0)
(-0.0534762 0.10548 0)
(0.00144487 0.0917744 0)
(-0.0240388 0.131944 0)
(-0.0721005 0.576996 0)
(-0.0974808 0.605196 0)
(-0.108447 0.543038 0)
(-0.109354 0.49929 0)
(-0.105739 0.455377 0)
(-0.0871476 0.427031 0)
(-0.0777127 0.400545 0)
(-0.0461366 0.423852 0)
(-0.0391 0.404067 0)
(0.00810654 0.435762 0)
(0.01918 0.353581 0)
(0.0232966 0.0501204 0)
(0.00497064 0.606447 0)
(0.0440221 0.244003 0)
(0.0133841 0.0193207 0)
(-4.77404e-05 0.503969 0)
(0.00553362 0.129176 0)
(-0.0832631 -0.0735575 0)
(-0.0250298 0.198968 0)
(-0.046818 0.318364 0)
(-0.087 -0.0427023 0)
(-0.0784386 -0.00829196 0)
(-0.0685223 0.0857295 0)
(-0.021071 0.0859812 0)
(-0.0477564 0.158913 0)
(-0.0848256 0.606189 0)
(-0.105491 0.623772 0)
(-0.120279 0.553331 0)
(-0.121633 0.497214 0)
(-0.11438 0.442531 0)
(-0.0896122 0.414709 0)
(-0.0795253 0.388363 0)
(-0.0488151 0.406859 0)
(-0.0368215 0.385072 0)
(-0.00493039 0.411654 0)
(0.0178749 0.342013 0)
(0.0267225 0.0764439 0)
(-0.0059244 0.582926 0)
(0.0517747 0.225536 0)
(0.0355593 0.0445959 0)
(0.00747045 0.513374 0)
(0.0250727 0.160218 0)
(-0.0652347 -0.0556027 0)
(-0.0010315 0.199561 0)
(-0.0425881 0.363024 0)
(-0.107758 -0.0258117 0)
(-0.082373 -0.00908213 0)
(-0.0845295 0.07427 0)
(-0.0475917 0.0818342 0)
(-0.0687013 0.176394 0)
(-0.0910703 0.623839 0)
(-0.107712 0.641805 0)
(-0.126266 0.56281 0)
(-0.133881 0.494727 0)
(-0.12581 0.42292 0)
(-0.098591 0.391836 0)
(-0.0818283 0.363605 0)
(-0.0480902 0.383122 0)
(-0.0357019 0.364403 0)
(-0.0139782 0.383758 0)
(0.0147186 0.316262 0)
(0.0322491 0.101177 0)
(-0.000517071 0.558631 0)
(0.0614568 0.199329 0)
(0.0617431 0.0755173 0)
(0.00935515 0.52849 0)
(0.0376134 0.191616 0)
(-0.0414059 -0.0354969 0)
(0.015078 0.207979 0)
(-0.0373822 0.420765 0)
(-0.126098 0.00289406 0)
(-0.0914991 -0.0053107 0)
(-0.101784 0.0716946 0)
(-0.0721055 0.0824273 0)
(-0.0861686 0.18909 0)
(-0.0909627 0.634786 0)
(-0.104326 0.658025 0)
(-0.125811 0.579832 0)
(-0.147919 0.495117 0)
(-0.145634 0.397081 0)
(-0.104546 0.354883 0)
(-0.0800454 0.325087 0)
(-0.0454356 0.350184 0)
(-0.0293347 0.338606 0)
(-0.0114866 0.350556 0)
(0.0239308 0.280504 0)
(0.038687 0.136593 0)
(0.0169495 0.520605 0)
(0.070922 0.172875 0)
(0.0922737 0.106163 0)
(0.0118175 0.555363 0)
(0.0329024 0.213531 0)
(-0.0180544 -0.0201504 0)
(0.0189138 0.215397 0)
(-0.0300345 0.48007 0)
(-0.139816 0.0280031 0)
(-0.0986374 -0.00256954 0)
(-0.115896 0.0752551 0)
(-0.0941988 0.0839871 0)
(-0.103091 0.189374 0)
(-0.0881628 0.632763 0)
(-0.0930198 0.67278 0)
(-0.111574 0.599546 0)
(-0.147167 0.498895 0)
(-0.141642 0.352871 0)
(-0.0857595 0.308479 0)
(-0.0668569 0.289731 0)
(-0.0342446 0.314262 0)
(-0.0178989 0.309074 0)
(0.00540435 0.310354 0)
(0.0375286 0.267774 0)
(0.037475 0.182232 0)
(0.0394138 0.463916 0)
(0.0872318 0.151538 0)
(0.12453 0.140772 0)
(0.01803 0.602556 0)
(0.00906417 0.237008 0)
(-0.00449767 -0.00633162 0)
(0.0118546 0.219823 0)
(-0.0225813 0.536369 0)
(-0.143642 0.0590315 0)
(-0.106588 0.00558188 0)
(-0.124886 0.0873654 0)
(-0.113645 0.0928183 0)
(-0.120643 0.183512 0)
(-0.0862216 0.614483 0)
(-0.0698767 0.673472 0)
(-0.0806638 0.62012 0)
(-0.118186 0.495416 0)
(-0.0996781 0.316268 0)
(-0.0531979 0.295996 0)
(-0.0528514 0.293837 0)
(-0.02314 0.309994 0)
(-0.0101 0.308296 0)
(0.0158079 0.305839 0)
(0.038568 0.283039 0)
(0.0281859 0.228056 0)
(0.0566075 0.383349 0)
(0.106657 0.136068 0)
(0.144552 0.174283 0)
(0.0204254 0.664449 0)
(-0.0224661 0.254447 0)
(-0.00704057 0.000952359 0)
(-0.00677031 0.215771 0)
(-0.0149643 0.582695 0)
(-0.13403 0.0865332 0)
(-0.109894 0.0154225 0)
(-0.125211 0.104325 0)
(-0.12861 0.108191 0)
(-0.136053 0.172911 0)
(-0.0889609 0.571408 0)
(-0.0418432 0.662202 0)
(-0.0558006 0.621639 0)
(-0.0439624 0.477799 0)
(-0.0375745 0.31001 0)
(-0.0177822 0.304232 0)
(-0.0253393 0.308538 0)
(-0.00846461 0.32057 0)
(-0.00115739 0.318477 0)
(0.0176674 0.315118 0)
(0.0266922 0.302566 0)
(0.0169176 0.25868 0)
(0.0509187 0.324414 0)
(0.111497 0.130344 0)
(0.131384 0.207825 0)
(0.00765798 0.726939 0)
(-0.0399516 0.262588 0)
(-0.0223127 0.0106063 0)
(-0.0303566 0.20527 0)
(-0.00831539 0.610257 0)
(-0.10662 0.114443 0)
(-0.107808 0.033387 0)
(-0.116862 0.127096 0)
(-0.136654 0.133756 0)
(-0.147269 0.169507 0)
(-0.0956229 0.511734 0)
(-0.0205501 0.637808 0)
(-0.0427328 0.600853 0)
(0.0243053 0.438018 0)
(0.0199273 0.319063 0)
(0.0162283 0.319328 0)
(0.00181651 0.32121 0)
(0.00840009 0.330559 0)
(0.00736817 0.326802 0)
(0.0174832 0.324973 0)
(0.0154213 0.316032 0)
(0.00981026 0.278405 0)
(0.0297975 0.297117 0)
(0.0963376 0.128175 0)
(0.0774164 0.229858 0)
(-0.00872955 0.771689 0)
(-0.0362821 0.256557 0)
(-0.035331 0.0273353 0)
(-0.0528016 0.192399 0)
(-0.0051991 0.612804 0)
(-0.0635569 0.138292 0)
(-0.0969817 0.0586838 0)
(-0.0997998 0.152635 0)
(-0.135849 0.165749 0)
(-0.149611 0.177005 0)
(-0.107149 0.450717 0)
(-0.0197227 0.589041 0)
(-0.0138294 0.551468 0)
(0.0707107 0.408434 0)
(0.0539809 0.337823 0)
(0.0427773 0.337959 0)
(0.0210082 0.334081 0)
(0.0215353 0.338371 0)
(0.0134414 0.332881 0)
(0.0176701 0.331493 0)
(0.00929147 0.325006 0)
(0.00676359 0.291035 0)
(0.00800723 0.28356 0)
(0.0626265 0.132976 0)
(0.00615057 0.243228 0)
(-0.00653181 0.780956 0)
(-0.014821 0.250137 0)
(-0.0367915 0.0569739 0)
(-0.0645661 0.187538 0)
(-0.00471492 0.598287 0)
(-0.0178731 0.161035 0)
(-0.0797861 0.0934726 0)
(-0.0775831 0.181998 0)
(-0.124626 0.202963 0)
(-0.140372 0.200714 0)
(-0.116478 0.419016 0)
(-0.0277679 0.517283 0)
(0.0158562 0.488082 0)
(0.0889972 0.407439 0)
(0.0645452 0.365384 0)
(0.0551639 0.358471 0)
(0.0307258 0.34936 0)
(0.0294888 0.347874 0)
(0.0170711 0.341252 0)
(0.0183599 0.339375 0)
(0.00699662 0.334225 0)
(0.00613465 0.30213 0)
(-0.0127709 0.283128 0)
(0.0297431 0.148759 0)
(-0.0509714 0.256215 0)
(0.00017049 0.761769 0)
(0.0114073 0.250341 0)
(-0.0260781 0.0957456 0)
(-0.0676911 0.192428 0)
(-0.00608476 0.554203 0)
(0.0226515 0.183611 0)
(-0.0577566 0.131607 0)
(-0.0530576 0.210858 0)
(-0.103426 0.238618 0)
(-0.117947 0.227177 0)
(-0.110141 0.410212 0)
(-0.0281805 0.478012 0)
(0.022665 0.462115 0)
(0.0824563 0.415409 0)
(0.0559689 0.390241 0)
(0.0536929 0.375685 0)
(0.0315345 0.363773 0)
(0.0317008 0.357568 0)
(0.0178446 0.350219 0)
(0.0184674 0.347265 0)
(0.00641324 0.342832 0)
(0.00650151 0.312288 0)
(-0.0289131 0.296187 0)
(0.00399117 0.17787 0)
(-0.0868242 0.26182 0)
(0.00833807 0.705422 0)
(0.0351745 0.26057 0)
(-0.00793199 0.142996 0)
(-0.0620334 0.209724 0)
(-0.0060402 0.501232 0)
(0.0479325 0.208496 0)
(-0.0367861 0.172695 0)
(-0.0319044 0.238799 0)
(-0.080093 0.270515 0)
(-0.0901411 0.2478 0)
(-0.0900811 0.407264 0)
(-0.0245833 0.464267 0)
(0.0123693 0.454944 0)
(0.0570496 0.421814 0)
(0.0370354 0.405477 0)
(0.0437203 0.387516 0)
(0.026777 0.375846 0)
(0.029618 0.366857 0)
(0.0166256 0.359835 0)
(0.0176948 0.35589 0)
(0.00634504 0.351881 0)
(0.00698515 0.323058 0)
(-0.0377166 0.318579 0)
(-0.0122585 0.213753 0)
(-0.104808 0.268526 0)
(0.0114728 0.622164 0)
(0.0544543 0.274069 0)
(0.0110025 0.191482 0)
(-0.0451692 0.235654 0)
(-0.00491937 0.481069 0)
(0.0541836 0.232644 0)
(-0.0222976 0.21064 0)
(-0.0184472 0.262464 0)
(-0.0601142 0.295634 0)
(-0.0659174 0.262177 0)
(-0.0697187 0.400191 0)
(-0.0206866 0.451473 0)
(-0.00220765 0.445738 0)
(0.0308285 0.421686 0)
(0.0197468 0.411393 0)
(0.0322618 0.3937 0)
(0.0201843 0.384338 0)
(0.0253618 0.374521 0)
(0.0141942 0.368311 0)
(0.0161915 0.363813 0)
(0.00617281 0.360206 0)
(0.0072697 0.3336 0)
(-0.0387699 0.345205 0)
(-0.0161898 0.250496 0)
(-0.105473 0.282031 0)
(0.0107612 0.555915 0)
(0.0617177 0.291401 0)
(0.0236668 0.237051 0)
(-0.0268199 0.262016 0)
(-0.00318887 0.475992 0)
(0.048839 0.254579 0)
(-0.0160162 0.2433 0)
(-0.0123733 0.282962 0)
(-0.046217 0.316096 0)
(-0.0494338 0.274734 0)
(-0.0571688 0.392749 0)
(-0.018995 0.438056 0)
(-0.0130861 0.435677 0)
(0.0135382 0.418191 0)
(0.00774149 0.412862 0)
(0.0224355 0.397209 0)
(0.0137918 0.390755 0)
(0.0205272 0.381159 0)
(0.011349 0.376148 0)
(0.0142351 0.371443 0)
(0.00569242 0.368356 0)
(0.0072166 0.344304 0)
(-0.0344394 0.367816 0)
(-0.00910216 0.2813 0)
(-0.0922602 0.298014 0)
(0.00991974 0.525196 0)
(0.0548623 0.307103 0)
(0.0264883 0.273218 0)
(-0.0139339 0.284093 0)
(-0.00226939 0.468847 0)
(0.0388776 0.271658 0)
(-0.0141245 0.269064 0)
(-0.0108384 0.29926 0)
(-0.0371781 0.331841 0)
(-0.0394702 0.28643 0)
(-0.0499848 0.386968 0)
(-0.0187068 0.427458 0)
(-0.0189674 0.427844 0)
(0.00341349 0.414232 0)
(0.000315148 0.41247 0)
(0.0148698 0.399206 0)
(0.00855534 0.395419 0)
(0.0159859 0.386513 0)
(0.00858266 0.382806 0)
(0.0121496 0.378167 0)
(0.00495174 0.375633 0)
(0.00689845 0.354368 0)
(-0.0264838 0.383514 0)
(0.000977066 0.305765 0)
(-0.0715797 0.312144 0)
(0.00934815 0.504837 0)
(0.0403587 0.319709 0)
(0.0233697 0.300098 0)
(-0.00876301 0.30356 0)
(-0.00161351 0.458829 0)
(0.0298479 0.287712 0)
(-0.0140162 0.291385 0)
(-0.0111713 0.313717 0)
(-0.0318286 0.345798 0)
(-0.0337047 0.298831 0)
(-0.0462733 0.384539 0)
(-0.0190881 0.420297 0)
(-0.0216804 0.423089 0)
(-0.00219474 0.411573 0)
(-0.00412465 0.412315 0)
(0.00915361 0.401119 0)
(0.00454656 0.399357 0)
(0.0119744 0.391388 0)
(0.00613961 0.388839 0)
(0.0100675 0.384448 0)
(0.00411205 0.382456 0)
(0.00637341 0.363992 0)
(-0.0185942 0.392541 0)
(0.00962363 0.323191 0)
(-0.0516928 0.322479 0)
(0.00947111 0.483764 0)
(0.0274082 0.326864 0)
(0.0178171 0.319078 0)
(-0.00805289 0.317277 0)
(-0.00206708 0.448055 0)
(0.0233298 0.298787 0)
(-0.0147556 0.310134 0)
(-0.0122079 0.32424 0)
(-0.0287299 0.356855 0)
(-0.0309471 0.310762 0)
(-0.0436992 0.383772 0)
(-0.0200761 0.415617 0)
(-0.0223168 0.420062 0)
(-0.00550041 0.410027 0)
(-0.00679918 0.4124 0)
(0.00484637 0.402929 0)
(0.00151489 0.402592 0)
(0.00857002 0.395584 0)
(0.00406112 0.394022 0)
(0.00808362 0.389977 0)
(0.00324335 0.388476 0)
(0.00573811 0.372799 0)
(-0.0121757 0.397928 0)
(0.0136075 0.33744 0)
(-0.0364763 0.332371 0)
(0.00734105 0.463204 0)
(0.0181313 0.333831 0)
(0.0124343 0.333315 0)
(-0.00910266 0.330451 0)
(-0.00319412 0.436415 0)
(0.0178931 0.313822 0)
(-0.0142182 0.32645 0)
(-0.0133699 0.336667 0)
(-0.024868 0.36763 0)
(-0.0286678 0.323248 0)
(-0.0411105 0.385164 0)
(-0.0205796 0.412593 0)
(-0.0221929 0.418841 0)
(-0.00754862 0.409674 0)
(-0.00851772 0.41323 0)
(0.00156861 0.405019 0)
(-0.000704259 0.405732 0)
(0.00573389 0.399565 0)
(0.00238679 0.398809 0)
(0.00627188 0.395145 0)
(0.00244675 0.394021 0)
(0.00501203 0.380949 0)
(-0.00727114 0.400348 0)
(0.0153503 0.347801 0)
(-0.0279385 0.341782 0)
(0.00833027 0.447091 0)
(0.0132562 0.342876 0)
(0.00874948 0.344896 0)
(-0.0104102 0.342136 0)
(-0.00127766 0.429616 0)
(0.0150218 0.320594 0)
(-0.0160545 0.343804 0)
(-0.0127304 0.343734 0)
(-0.025831 0.376485 0)
(-0.0281473 0.334481 0)
(-0.0387626 0.387537 0)
(-0.021619 0.410848 0)
(-0.0215163 0.418137 0)
(-0.00947168 0.410032 0)
(-0.00957746 0.414072 0)
(-0.00110267 0.407121 0)
(-0.00238309 0.408373 0)
(0.003331 0.403139 0)
(0.000970553 0.402883 0)
(0.00464765 0.399716 0)
(0.00171666 0.398843 0)
(0.00425817 0.388173 0)
(-0.00507578 0.402137 0)
(0.0148213 0.359921 0)
(-0.0189833 0.348037 0)
(0.00714401 0.436813 0)
(0.00978434 0.343805 0)
(0.00331692 0.361958 0)
(-0.00765031 0.34569 0)
(-0.010665 0.423025 0)
(0.0143758 0.329112 0)
(-0.0111007 0.355512 0)
(-0.0183859 0.351441 0)
(-0.0179933 0.382597 0)
(-0.0264437 0.344872 0)
(-0.0353334 0.389488 0)
(-0.0223912 0.41059 0)
(-0.0206548 0.417943 0)
(-0.0108003 0.410798 0)
(-0.0103087 0.41537 0)
(-0.00305919 0.409301 0)
(-0.00366111 0.411188 0)
(0.00139729 0.406567 0)
(-0.000138277 0.406862 0)
(0.00324672 0.404007 0)
(0.00113645 0.403456 0)
(0.00351404 0.394856 0)
(0.0013185 0.402768 0)
(0.00903431 0.367984 0)
(-0.0176871 0.356613 0)
(0.00132256 0.424884 0)
(0.0154588 0.349147 0)
(0.000600991 0.370077 0)
(-0.0168844 0.354247 0)
(-0.00561692 0.416247 0)
(0.0149017 0.34773 0)
(-0.00844568 0.35911 0)
(-0.0196414 0.363825 0)
(-0.0173413 0.387607 0)
(-0.0268318 0.353343 0)
(-0.0316794 0.392935 0)
(-0.0221207 0.410835 0)
(-0.019152 0.418088 0)
(-0.0118559 0.411963 0)
(-0.0104822 0.416273 0)
(-0.00475934 0.411442 0)
(-0.00448339 0.413351 0)
(-0.00029614 0.409581 0)
(-0.000960916 0.409958 0)
(0.00191622 0.407645 0)
(0.000632598 0.407113 0)
(0.00264409 0.400339 0)
(0.00313207 0.405016 0)
(0.00593967 0.36961 0)
(-0.0168705 0.366696 0)
(0.000557898 0.421328 0)
(0.0170331 0.362812 0)
(-0.000244543 0.36775 0)
(-0.0136581 0.368266 0)
(-0.00629146 0.411776 0)
(0.00533558 0.35863 0)
(-0.00860142 0.362549 0)
(-0.0165272 0.371861 0)
(-0.0176425 0.390791 0)
(-0.0232872 0.363305 0)
(-0.0257717 0.394744 0)
(-0.0231379 0.41189 0)
(-0.0175996 0.417233 0)
(-0.0129545 0.41373 0)
(-0.0105646 0.416872 0)
(-0.0059933 0.413757 0)
(-0.00518246 0.41488 0)
(-0.00158139 0.41254 0)
(-0.00177267 0.412772 0)
(0.000896316 0.411136 0)
(0.000109643 0.410798 0)
(0.00197167 0.405411 0)
(0.00219188 0.405527 0)
(0.00262819 0.372955 0)
(-0.00668479 0.372825 0)
(0.000110529 0.418662 0)
(0.00684557 0.368642 0)
(-0.00142657 0.370075 0)
(-0.00925567 0.374981 0)
(-0.00501798 0.404566 0)
(-0.000629154 0.368774 0)
(-0.00872226 0.368485 0)
(-0.0144642 0.379255 0)
(-0.0169176 0.392371 0)
(-0.0204299 0.372068 0)
(-0.0228611 0.394288 0)
(-0.0222585 0.412605 0)
(-0.0158405 0.417893 0)
(-0.0129993 0.414529 0)
(-0.0103618 0.419089 0)
(-0.0067389 0.415064 0)
(-0.00562795 0.417553 0)
(-0.00260219 0.414537 0)
(-0.00227588 0.415745 0)
(-2.64055e-05 0.413725 0)
(-0.000123435 0.413653 0)
(0.00104928 0.409298 0)
(0.00144333 0.40484 0)
(0.00127865 0.377674 0)
(-0.00337811 0.377329 0)
(-0.000290836 0.410155 0)
(0.00254217 0.375002 0)
(-0.00222167 0.483211 0)
(-0.00680614 0.379934 0)
(-0.00493293 0.401894 0)
(-0.00367613 0.447381 0)
(-0.0088807 0.402251 0)
(-0.0129213 0.383206 0)
(-0.0153096 0.393914 0)
(-0.0178158 0.37802 0)
(-0.0204362 0.394852 0)
(-0.019325 0.412941 0)
(-0.0154037 0.417748 0)
(-0.0126251 0.415225 0)
(-0.0100894 0.418613 0)
(-0.00741983 0.415942 0)
(-0.00565796 0.418146 0)
(-0.00355862 0.415812 0)
(-0.00242277 0.416414 0)
(-0.000983648 0.415263 0)
(-0.000352802 0.414926 0)
(0.000360486 0.411396 0)
(0.000989664 0.405036 0)
(0.000706217 0.427106 0)
(-0.00203658 0.383921 0)
(-0.00071141 0.407906 0)
(0.000668487 0.478148 0)
(-0.00284923 0.481479 0)
(-0.00555371 0.384101 0)
(-0.00486949 0.401892 0)
(-0.00547319 0.437759 0)
(-0.00874424 0.55357 0)
(-0.0120296 0.387045 0)
(-0.0137719 0.397013 0)
(-0.0158266 0.441033 0)
(-0.0175461 0.396358 0)
(-0.0167615 0.413096 0)
(-0.014145 0.415406 0)
(-0.011906 0.415591 0)
(-0.00963154 0.416907 0)
(-0.0075755 0.416505 0)
(-0.00578276 0.417341 0)
(-0.00409199 0.416346 0)
(-0.00284358 0.416456 0)
(-0.00155132 0.415811 0)
(-0.00066758 0.415404 0)
(-4.26937e-05 0.412283 0)
(0.000659142 0.405604 0)
(0.000217637 0.54596 0)
(-0.00145001 0.523149 0)
(-0.000658268 0.408036 0)
(-0.000985802 0.483244 0)
(-0.00310998 0.34664 0)
(-0.00514857 0.492606 0)
(-0.00510414 0.403591 0)
(-0.00595902 0.375678 0)
(-0.00824657 0.372238 0)
(-0.0115851 0.491213 0)
(-0.0131244 0.410183 0)
(-0.0131913 0.544584 0)
(-0.0162484 0.40751 0)
(-0.0145774 0.413771 0)
(-0.0128286 0.415231 0)
(-0.0110236 0.415967 0)
(-0.00927711 0.417045 0)
(-0.00745304 0.4169 0)
(-0.00586751 0.417183 0)
(-0.00437954 0.416914 0)
(-0.00309285 0.417031 0)
(-0.00197138 0.416552 0)
(-0.00097606 0.416312 0)
(-0.000257499 0.41345 0)
(0.000518357 0.527078 0)
(0.000126042 0.3618 0)
(-0.00113681 0.445947 0)
(-0.000879037 0.478196 0)
(-0.00161088 0.350721 0)
(-0.00321269 0.3856 0)
(-0.00483469 0.492338 0)
(-0.00561665 0.575315 0)
(-0.00595278 0.369559 0)
(-0.0078224 0.368073 0)
(-0.0101419 0.501266 0)
(-0.0125806 0.640903 0)
(-0.0114862 0.357022 0)
(-0.0149571 0.626667 0)
(-0.0132328 0.469428 0)
(-0.0118122 0.46042 0)
(-0.0103369 0.453437 0)
(-0.00879581 0.449538 0)
(-0.00726448 0.45005 0)
(-0.00582022 0.449889 0)
(-0.00445096 0.45191 0)
(-0.00323673 0.455695 0)
(-0.00215787 0.455335 0)
(-0.0011571 0.465212 0)
(-0.000356677 0.489388 0)
(0.000288557 0.500449 0)
(9.8566e-06 0.377504 0)
(-0.00103573 0.355318 0)
(-0.00144986 0.572932 0)
(-0.00183992 0.3851 0)
(-0.00322425 0.384189 0)
(-0.004525 0.354799 0)
(-0.00536733 0.446933 0)
(-0.00585214 0.385389 0)
(-0.00750171 0.388023 0)
(-0.00881905 0.35775 0)
(-0.0100443 0.39158 0)
(-0.0105332 0.383865 0)
(-0.0119125 0.397183 0)
(-0.0119614 0.601431 0)
(-0.0105076 0.622618 0)
(-0.00939447 0.638093 0)
(-0.00812043 0.649658 0)
(-0.00681198 0.648217 0)
(-0.00556868 0.649984 0)
(-0.00440672 0.644644 0)
(-0.00331316 0.636679 0)
(-0.00228596 0.636607 0)
(-0.00129918 0.616183 0)
(-0.000416357 0.567612 0)
(0.000250097 0.367471 0)
(6.69529e-06 0.388824 0)
(-0.0010612 0.390615 0)
(-0.00145371 0.368088 0)
(-0.00187941 0.385994 0)
(-0.00321527 0.386279 0)
(-0.00436757 0.393375 0)
(-0.00495379 0.371527 0)
(-0.0056556 0.386648 0)
(-0.00721658 0.387284 0)
(-0.00833128 0.396751 0)
(-0.00902674 0.384428 0)
(-0.00981597 0.390148 0)
(-0.0107221 0.378921 0)
(-0.0104878 0.374653 0)
(-0.00955475 0.376463 0)
(-0.00863161 0.378978 0)
(-0.00762505 0.380408 0)
(-0.00650627 0.381118 0)
(-0.00541687 0.381288 0)
(-0.00432523 0.381213 0)
(-0.00326183 0.380237 0)
(-0.0023031 0.380551 0)
(-0.00132541 0.37846 0)
(-0.000431866 0.374021 0)
(0.000309089 0.408728 0)
(5.5564e-05 0.388567 0)
(-0.00104529 0.388401 0)
(-0.00140244 0.409308 0)
(-0.00183555 0.387521 0)
(-0.00319191 0.387537 0)
(-0.00425524 0.391437 0)
(-0.00479093 0.40822 0)
(-0.00543754 0.388217 0)
(-0.00691297 0.389083 0)
(-0.00798756 0.39449 0)
(-0.00849092 0.40439 0)
(-0.00915755 0.390731 0)