/*--------------------------------*- C++ -*----------------------------------*\
  =========                 |
  \\      /  F ield         | OpenFOAM: The Open Source CFD Toolbox
   \\    /   O peration     | Website:  https://openfoam.org
    \\  /    A nd           | Version:  dev
     \\/     M anipulation  |
\*---------------------------------------------------------------------------*/
FoamFile
{
    version     2.0;
    format      ascii;
    class       volVectorField;
    location    "1";
    object      U.airMean;
}
// * * * * * * * * * * * * * * * * * * * * * * * * * * * * * * * * * * * * * //

dimensions      [0 1 -1 0 0 0 0];

internalField   nonuniform List<vector> 
1875
(
(0.00247088 0.490366 0)
(-0.00762479 0.475024 0)
(0.0035462 0.477104 0)
(-0.00321912 0.478198 0)
(-3.47314e-06 0.477262 0)
(0.000360577 0.474927 0)
(0.00730686 0.478857 0)
(0.00355301 0.478802 0)
(0.000768216 0.477035 0)
(0.0068969 0.473943 0)
(0.00954793 0.478493 0)
(0.0116097 0.47883 0)
(0.00750602 0.474937 0)
(0.0177933 0.473562 0)
(0.0153569 0.483031 0)
(0.01629 0.486423 0)
(0.0137378 0.485701 0)
(0.0152236 0.485097 0)
(0.0124233 0.485382 0)
(0.0122201 0.48556 0)
(0.00915218 0.485865 0)
(0.00864809 0.48635 0)
(0.0056418 0.485556 0)
(0.00554144 0.486745 0)
(0.00240456 0.495836 0)
(0.00906516 0.313222 0)
(-0.015196 0.309186 0)
(0.0139929 0.304863 0)
(-0.00586969 0.318241 0)
(-0.00241069 0.305229 0)
(0.00305079 0.298978 0)
(0.0209599 0.304004 0)
(0.0156432 0.319609 0)
(0.00673721 0.307147 0)
(0.0189347 0.298024 0)
(0.0315362 0.299878 0)
(0.0391847 0.314079 0)
(0.0284173 0.304179 0)
(0.0453603 0.299845 0)
(0.0451968 0.308497 0)
(0.0448035 0.312747 0)
(0.0350881 0.31326 0)
(0.0335221 0.314161 0)
(0.0245659 0.315639 0)
(0.0218972 0.316017 0)
(0.0143521 0.315964 0)
(0.011419 0.315382 0)
(0.0050319 0.315493 0)
(0.00036812 0.314131 0)
(-0.00407625 0.311352 0)
(0.00556491 0.300209 0)
(-0.0222197 0.284914 0)
(0.0128711 0.275492 0)
(-0.00914934 0.306525 0)
(-0.00287904 0.276226 0)
(0.00307348 0.267884 0)
(0.021844 0.273299 0)
(0.019325 0.308224 0)
(0.00982585 0.280671 0)
(0.0249147 0.265578 0)
(0.0365597 0.267054 0)
(0.046724 0.293996 0)
(0.0376168 0.277593 0)
(0.0564849 0.271696 0)
(0.0543088 0.289412 0)
(0.0531103 0.300962 0)
(0.0398029 0.299773 0)
(0.0369651 0.300103 0)
(0.0274061 0.299852 0)
(0.026062 0.299787 0)
(0.018398 0.299421 0)
(0.0166445 0.29957 0)
(0.00908359 0.300307 0)
(0.0073933 0.300031 0)
(-0.000607418 0.294523 0)
(0.00395832 0.312831 0)
(-0.0180559 0.28747 0)
(0.00890815 0.275814 0)
(-0.00820563 0.318335 0)
(-0.00254533 0.276598 0)
(0.00141517 0.262523 0)
(0.0178803 0.270795 0)
(0.0170704 0.316502 0)
(0.0128204 0.284985 0)
(0.0234794 0.259703 0)
(0.0359659 0.26136 0)
(0.0453919 0.299374 0)
(0.0395771 0.279214 0)
(0.0549409 0.270107 0)
(0.0525599 0.293883 0)
(0.0540003 0.311956 0)
(0.0419117 0.31244 0)
(0.0381991 0.311114 0)
(0.0279277 0.309578 0)
(0.0259028 0.308688 0)
(0.0176942 0.308246 0)
(0.015698 0.308257 0)
(0.00801271 0.307953 0)
(0.00731708 0.307419 0)
(0.000115951 0.301365 0)
(0.00401318 0.320795 0)
(-0.0159488 0.288213 0)
(0.00628138 0.273476 0)
(-0.00865175 0.32557 0)
(-0.00318963 0.275087 0)
(-0.000257808 0.257804 0)
(0.0162769 0.265127 0)
(0.0149872 0.321107 0)
(0.0128098 0.281849 0)
(0.0226255 0.2531 0)
(0.036481 0.252843 0)
(0.0447153 0.300318 0)
(0.0403343 0.275421 0)
(0.057033 0.268018 0)
(0.0519272 0.295999 0)
(0.0543296 0.319393 0)
(0.0429474 0.322014 0)
(0.0392064 0.32147 0)
(0.0283449 0.319052 0)
(0.0261803 0.31757 0)
(0.0175221 0.316429 0)
(0.0158404 0.316405 0)
(0.00802745 0.315368 0)
(0.00738743 0.314639 0)
(0.000348197 0.308884 0)
(0.00220013 0.334603 0)
(-0.014959 0.296614 0)
(0.00385681 0.27919 0)
(-0.00973907 0.339144 0)
(-0.00824305 0.280123 0)
(-0.00286493 0.256156 0)
(0.0169865 0.265864 0)
(0.0152132 0.331834 0)
(0.0111206 0.288375 0)
(0.0178982 0.249236 0)
(0.0400684 0.249564 0)
(0.0443676 0.308963 0)
(0.0397695 0.277702 0)
(0.057938 0.270711 0)
(0.0527394 0.305487 0)
(0.0545571 0.332378 0)
(0.0431573 0.337527 0)
(0.0385818 0.336753 0)
(0.0275488 0.332734 0)
(0.0250857 0.33045 0)
(0.0163645 0.328783 0)
(0.0146394 0.328371 0)
(0.00707646 0.326713 0)
(0.00646362 0.325587 0)
(0.000178431 0.31973 0)
(0.00106358 0.343605 0)
(-0.0146738 0.297282 0)
(0.00222314 0.278966 0)
(-0.00961469 0.349655 0)
(-0.013644 0.279876 0)
(-0.00606417 0.244926 0)
(0.0193038 0.258237 0)
(0.0160994 0.339753 0)
(0.0100257 0.290359 0)
(0.0149328 0.237121 0)
(0.04446 0.236987 0)
(0.0447646 0.314509 0)
(0.0389428 0.27224 0)
(0.0610627 0.266587 0)
(0.0559793 0.308036 0)
(0.0564222 0.340172 0)
(0.0431662 0.347566 0)
(0.0389634 0.347744 0)
(0.0262771 0.342518 0)
(0.0237559 0.339303 0)
(0.0144646 0.336787 0)
(0.0129937 0.335877 0)
(0.00552588 0.333429 0)
(0.00551313 0.331566 0)
(-0.000320393 0.325415 0)
(0.000527602 0.356936 0)
(-0.0158826 0.304448 0)
(0.00133449 0.283584 0)
(-0.00635265 0.365037 0)
(-0.0180588 0.286504 0)
(-0.00955871 0.232612 0)
(0.0237672 0.253269 0)
(0.0172585 0.353823 0)
(0.00672397 0.299462 0)
(0.0139319 0.224561 0)
(0.0522723 0.22777 0)
(0.0423607 0.327636 0)
(0.0330067 0.269603 0)
(0.0661613 0.263255 0)
(0.0593029 0.317183 0)
(0.057742 0.355195 0)
(0.0420148 0.363471 0)
(0.0374984 0.363708 0)
(0.0247497 0.357027 0)
(0.0221596 0.352073 0)
(0.0131174 0.348437 0)
(0.0116718 0.34653 0)
(0.0044884 0.343061 0)
(0.00442147 0.340416 0)
(-0.00072179 0.333943 0)
(-0.000180028 0.368186 0)
(-0.0172446 0.305615 0)
(0.00360196 0.280195 0)
(0.00254297 0.379948 0)
(-0.0212949 0.290482 0)
(-0.00811143 0.207611 0)
(0.0316448 0.241389 0)
(0.0214783 0.371682 0)
(-0.000348094 0.303611 0)
(0.0140986 0.198465 0)
(0.0595317 0.21342 0)
(0.0404522 0.34732 0)
(0.0222189 0.257507 0)
(0.0731342 0.250149 0)
(0.0633759 0.321946 0)
(0.0594232 0.367812 0)
(0.0381828 0.376881 0)
(0.0337478 0.375523 0)
(0.0205769 0.36699 0)
(0.018343 0.360597 0)
(0.0094162 0.356193 0)
(0.00836042 0.353686 0)
(0.00167057 0.349569 0)
(0.00210895 0.345678 0)
(-0.00178586 0.338163 0)
(0.000588592 0.38248 0)
(-0.0183969 0.307526 0)
(0.00963834 0.274395 0)
(0.0139284 0.399989 0)
(-0.0120456 0.297095 0)
(0.00584358 0.184333 0)
(0.0404247 0.234369 0)
(0.0276947 0.399259 0)
(-0.00094903 0.312075 0)
(0.0222227 0.179109 0)
(0.0612778 0.206677 0)
(0.0334534 0.3764 0)
(0.00527324 0.246001 0)
(0.0815308 0.230745 0)
(0.0617942 0.333992 0)
(0.0571994 0.389177 0)
(0.030909 0.396491 0)
(0.0275411 0.391033 0)
(0.0146945 0.380892 0)
(0.0134183 0.372129 0)
(0.00530814 0.36657 0)
(0.0049073 0.362742 0)
(-0.000708042 0.357484 0)
(-0.00011572 0.352319 0)
(-0.00283327 0.342292 0)
(0.000250909 0.394993 0)
(-0.020009 0.304197 0)
(0.0197094 0.259841 0)
(0.0206265 0.412583 0)
(0.00302117 0.297278 0)
(0.0262831 0.174301 0)
(0.0449575 0.232175 0)
(0.025712 0.422381 0)
(0.000512752 0.3118 0)
(0.0390591 0.166131 0)
(0.0537854 0.212239 0)
(0.0177298 0.40678 0)
(0.00431862 0.22577 0)
(0.0820352 0.209726 0)
(0.0495714 0.343299 0)
(0.0374791 0.405219 0)
(0.0155114 0.414236 0)
(0.0144784 0.402326 0)
(0.00575592 0.390266 0)
(0.00684762 0.379493 0)
(0.000456732 0.373362 0)
(0.000972269 0.368652 0)
(-0.0039129 0.363443 0)
(-0.00290268 0.356658 0)
(-0.0040259 0.344089 0)
(-0.00114202 0.410811 0)
(-0.0217417 0.296285 0)
(0.027774 0.241991 0)
(0.0174415 0.426274 0)
(0.00735286 0.295547 0)
(0.0428114 0.172506 0)
(0.0384008 0.238749 0)
(0.00604173 0.444581 0)
(-0.00277055 0.304852 0)
(0.0529593 0.157271 0)
(0.0326281 0.229626 0)
(0.00212038 0.419257 0)
(0.0226219 0.206598 0)
(0.0580915 0.202691 0)
(0.0168296 0.36091 0)
(0.000209354 0.423444 0)
(-0.010967 0.425256 0)
(-0.00341279 0.409856 0)
(-0.00595575 0.396667 0)
(-0.00126258 0.385852 0)
(-0.00558358 0.380213 0)
(-0.00435553 0.375158 0)
(-0.00796281 0.369318 0)
(-0.00680863 0.360633 0)
(-0.00569647 0.342831 0)
(-0.00242797 0.426206 0)
(-0.0208391 0.287134 0)
(0.0284922 0.227735 0)
(0.00319922 0.439052 0)
(0.0012345 0.28824 0)
(0.0410825 0.169552 0)
(0.0168183 0.256674 0)
(-0.0276163 0.462213 0)
(0.00141428 0.282253 0)
(0.0482417 0.156955 0)
(0.00559527 0.25358 0)
(-0.00956989 0.416879 0)
(0.0241377 0.194563 0)
(0.0196385 0.222884 0)
(-0.0303071 0.383092 0)
(-0.0293782 0.424956 0)
(-0.0311584 0.422323 0)
(-0.0159397 0.406347 0)
(-0.0146681 0.396717 0)
(-0.00784036 0.387888 0)
(-0.0100612 0.384662 0)
(-0.00779213 0.379561 0)
(-0.0107586 0.374285 0)
(-0.00968591 0.362863 0)
(-0.00682614 0.339568 0)
(-0.00206801 0.439949 0)
(-0.014423 0.278427 0)
(0.0211568 0.226571 0)
(-0.0138565 0.45546 0)
(-0.00243018 0.284202 0)
(0.0172663 0.178246 0)
(-0.0123716 0.289834 0)
(-0.0337966 0.456311 0)
(0.0070088 0.256875 0)
(0.0285779 0.174554 0)
(-0.018888 0.277028 0)
(-0.00975076 0.406462 0)
(0.0139949 0.195357 0)
(-0.0122286 0.256286 0)
(-0.0467963 0.403926 0)
(-0.0397563 0.423029 0)
(-0.0368095 0.417794 0)
(-0.0220619 0.402521 0)
(-0.0193724 0.397032 0)
(-0.0131413 0.389673 0)
(-0.012958 0.387946 0)
(-0.0111892 0.383788 0)
(-0.0126995 0.379192 0)
(-0.0123601 0.365355 0)
(-0.00831598 0.334599 0)
(0.00125811 0.447479 0)
(-0.0102425 0.277427 0)
(0.00754046 0.237248 0)
(-0.0202761 0.462945 0)
(-0.000910119 0.280919 0)
(-0.00544773 0.192972 0)
(-0.015859 0.303763 0)
(-0.0242203 0.450337 0)
(0.00303582 0.244292 0)
(0.010056 0.190802 0)
(-0.027927 0.288202 0)
(-0.00789654 0.396246 0)
(0.00553749 0.206757 0)
(-0.026238 0.288045 0)
(-0.0452488 0.414681 0)
(-0.0393917 0.420687 0)
(-0.0353785 0.411973 0)
(-0.0243258 0.39794 0)
(-0.0212446 0.395891 0)
(-0.0158829 0.389478 0)
(-0.013846 0.390296 0)
(-0.0124469 0.386866 0)
(-0.0121445 0.383209 0)
(-0.0136793 0.36722 0)
(-0.00941886 0.326888 0)
(0.0050959 0.454356 0)
(-0.010375 0.28289 0)
(0.00154941 0.247376 0)
(-0.0154012 0.46913 0)
(-0.00323851 0.280674 0)
(-0.0163872 0.207746 0)
(-0.01346 0.31296 0)
(-0.0130629 0.44654 0)
(-0.00207401 0.240431 0)
(-0.00217763 0.210554 0)
(-0.031423 0.295624 0)
(-0.00808136 0.384278 0)
(-0.000352606 0.221678 0)
(-0.0291157 0.313131 0)
(-0.0381178 0.423034 0)
(-0.0357896 0.41996 0)
(-0.0310587 0.410281 0)
(-0.0255375 0.396989 0)
(-0.0212464 0.396259 0)
(-0.0172937 0.38994 0)
(-0.013111 0.391736 0)
(-0.011797 0.389416 0)
(-0.00994809 0.387754 0)
(-0.0143261 0.370997 0)
(-0.0101369 0.319192 0)
(0.00785588 0.45745 0)
(-0.00518488 0.288579 0)
(-0.00092831 0.254756 0)
(-0.00664719 0.473285 0)
(-0.00394325 0.283748 0)
(-0.0221585 0.216607 0)
(-0.0117663 0.311388 0)
(-0.00145314 0.446195 0)
(-0.00633942 0.243991 0)
(-0.00860067 0.225129 0)
(-0.030056 0.299918 0)
(-0.00876726 0.375798 0)
(-0.00537722 0.236016 0)
(-0.0293442 0.331601 0)
(-0.0309716 0.428256 0)
(-0.0316795 0.420791 0)
(-0.0273042 0.410038 0)
(-0.0253225 0.396219 0)
(-0.0200408 0.395561 0)
(-0.0166966 0.389316 0)
(-0.0111844 0.392497 0)
(-0.0100446 0.391454 0)
(-0.00546865 0.392834 0)
(-0.0116619 0.374222 0)
(-0.00717976 0.311579 0)
(0.00890503 0.453769 0)
(0.00490819 0.295011 0)
(-0.00252254 0.259517 0)
(0.00146611 0.475068 0)
(0.000853051 0.29062 0)
(-0.0176116 0.226118 0)
(-0.012106 0.307389 0)
(0.00170906 0.447577 0)
(-0.00735447 0.253964 0)
(-0.0117515 0.238728 0)
(-0.0273466 0.303157 0)
(-0.00965207 0.36867 0)
(-0.00836402 0.249231 0)
(-0.0287471 0.344316 0)
(-0.0252358 0.43223 0)
(-0.0285524 0.423218 0)
(-0.0237373 0.411515 0)
(-0.0241937 0.396646 0)
(-0.0180869 0.395015 0)
(-0.015694 0.388555 0)
(-0.00890145 0.392441 0)
(-0.00782626 0.390998 0)
(0.000521633 0.395523 0)
(-0.00511993 0.376745 0)
(0.000202123 0.312526 0)
(0.00688796 0.4464 0)
(0.0141437 0.303563 0)
(-0.00278347 0.266001 0)
(0.00371459 0.47349 0)
(0.00617454 0.298854 0)
(-0.0113385 0.239336 0)
(-0.0135799 0.306405 0)
(-0.000586093 0.447147 0)
(-0.00703056 0.264393 0)
(-0.0146779 0.251141 0)
(-0.0245081 0.306427 0)
(-0.0108024 0.364849 0)
(-0.0106332 0.261933 0)
(-0.0285372 0.354485 0)
(-0.0217212 0.4353 0)
(-0.0265347 0.425491 0)
(-0.0208642 0.412918 0)
(-0.022096 0.397518 0)
(-0.015533 0.394451 0)
(-0.0139981 0.387787 0)
(-0.00707228 0.392163 0)
(-0.0056036 0.38959 0)
(0.00290772 0.395598 0)
(0.00278106 0.378481 0)
(0.006004 0.319973 0)
(0.00354135 0.438334 0)
(0.0193165 0.311062 0)
(-0.000691413 0.275165 0)
(0.00408482 0.472974 0)
(0.00715788 0.308372 0)
(-0.00758854 0.252527 0)
(-0.0134628 0.308363 0)
(-0.00415223 0.447692 0)
(-0.00790228 0.275301 0)
(-0.0177018 0.262871 0)
(-0.0231059 0.309171 0)
(-0.0119939 0.362923 0)
(-0.0120832 0.273895 0)
(-0.0281751 0.361904 0)
(-0.0194463 0.437835 0)
(-0.0248436 0.428404 0)
(-0.0186136 0.414017 0)
(-0.020218 0.398336 0)
(-0.0129194 0.394607 0)
(-0.0126137 0.387913 0)
(-0.00570008 0.391889 0)
(-0.00438367 0.388873 0)
(0.00303173 0.393724 0)
(0.00676823 0.380145 0)
(0.00802049 0.330757 0)
(0.000323672 0.431131 0)
(0.0212083 0.31613 0)
(0.000691983 0.28547 0)
(0.00389667 0.472475 0)
(0.00738773 0.315917 0)
(-0.00554508 0.264858 0)
(-0.0125724 0.312524 0)
(-0.00584012 0.44798 0)
(-0.00869877 0.284241 0)
(-0.0190955 0.273054 0)
(-0.0221837 0.312141 0)
(-0.0130766 0.362392 0)
(-0.0131369 0.284598 0)
(-0.0284217 0.368053 0)
(-0.0183363 0.439754 0)
(-0.023359 0.430501 0)
(-0.0166553 0.414735 0)
(-0.0182451 0.398605 0)
(-0.0105817 0.394461 0)
(-0.0107675 0.38826 0)
(-0.00438455 0.391684 0)
(-0.00309802 0.388629 0)
(0.00264287 0.391877 0)
(0.00733136 0.381207 0)
(0.00818098 0.341807 0)
(-0.00146486 0.424929 0)
(0.0219427 0.319474 0)
(0.001194 0.296777 0)
(0.00413485 0.471642 0)
(0.00762218 0.323789 0)
(-0.00449611 0.276622 0)
(-0.0108646 0.317541 0)
(-0.00553911 0.448796 0)
(-0.00920373 0.293547 0)
(-0.0197107 0.283074 0)
(-0.0218068 0.315419 0)
(-0.0146982 0.363016 0)
(-0.0145985 0.294925 0)
(-0.0289641 0.372821 0)
(-0.0173744 0.440202 0)
(-0.021679 0.432116 0)
(-0.0146064 0.414801 0)
(-0.0162544 0.398379 0)
(-0.00845611 0.394218 0)
(-0.00898681 0.388824 0)
(-0.00312056 0.391551 0)
(-0.00202128 0.389035 0)
(0.00247126 0.390741 0)
(0.00684138 0.382215 0)
(0.007578 0.352615 0)
(-0.00152255 0.418993 0)
(0.0217121 0.32265 0)
(0.00148268 0.307703 0)
(0.00442934 0.470771 0)
(0.00761063 0.330716 0)
(-0.00282987 0.287584 0)
(-0.00939315 0.322742 0)
(-0.00432536 0.449773 0)
(-0.00860971 0.302353 0)
(-0.0191009 0.292491 0)
(-0.0206058 0.319462 0)
(-0.0163859 0.364974 0)
(-0.0162669 0.304608 0)
(-0.0289045 0.376494 0)
(-0.0161867 0.43971 0)
(-0.019515 0.432793 0)
(-0.0121209 0.414938 0)
(-0.0139617 0.398258 0)
(-0.00622173 0.394089 0)
(-0.00704922 0.389751 0)
(-0.0018571 0.391897 0)
(-0.00109165 0.389974 0)
(0.00272408 0.390449 0)
(0.00613333 0.383783 0)
(0.00660153 0.362461 0)
(-0.000831299 0.413503 0)
(0.0210006 0.326036 0)
(0.00127603 0.318022 0)
(0.00450443 0.469955 0)
(0.00719366 0.337176 0)
(-0.000963255 0.297913 0)
(-0.00890809 0.327881 0)
(-0.00296739 0.450409 0)
(-0.00687998 0.311395 0)
(-0.0178845 0.301735 0)
(-0.0190602 0.324372 0)
(-0.0178113 0.368367 0)
(-0.0176897 0.313589 0)
(-0.0282887 0.378755 0)
(-0.0147135 0.438144 0)
(-0.0167727 0.432936 0)
(-0.00893245 0.414786 0)
(-0.0107315 0.398488 0)
(-0.00352844 0.394722 0)
(-0.00501655 0.391658 0)
(-0.000593953 0.393089 0)
(-0.000220564 0.391615 0)
(0.0032552 0.391205 0)
(0.00547199 0.386636 0)
(0.00537766 0.371618 0)
(-0.000163326 0.408187 0)
(0.0197142 0.329991 0)
(0.000395719 0.327115 0)
(0.0043547 0.468947 0)
(0.00618587 0.342387 0)
(0.000349607 0.307328 0)
(-0.00923255 0.332292 0)
(-0.0019875 0.449864 0)
(-0.00435088 0.319463 0)
(-0.016093 0.310353 0)
(-0.0171203 0.329669 0)
(-0.0186387 0.372239 0)
(-0.0184846 0.321356 0)
(-0.0271179 0.379657 0)
(-0.0130246 0.435629 0)
(-0.0136814 0.431913 0)
(-0.00489333 0.414372 0)
(-0.00666814 0.399469 0)
(-0.000764328 0.396697 0)
(-0.00303374 0.394814 0)
(0.000569454 0.395384 0)
(0.000401418 0.394127 0)
(0.00350369 0.393278 0)
(0.0043286 0.390547 0)
(0.00399016 0.379176 0)
(-0.000186867 0.403711 0)
(0.0180488 0.334521 0)
(-0.00151469 0.335343 0)
(0.00394084 0.467368 0)
(0.00525239 0.347239 0)
(0.000900916 0.316406 0)
(-0.0099222 0.336517 0)
(-0.00148786 0.447904 0)
(-0.00135842 0.327343 0)
(-0.0142145 0.319005 0)
(-0.0150469 0.335541 0)
(-0.0187847 0.376674 0)
(-0.0186994 0.328614 0)
(-0.0258657 0.379593 0)
(-0.0114614 0.432095 0)
(-0.0108465 0.429619 0)
(-0.000654582 0.413421 0)
(-0.00279587 0.40166 0)
(0.00135661 0.399647 0)
(-0.0013342 0.398336 0)
(0.00144867 0.398227 0)
(0.000776263 0.397023 0)
(0.0032765 0.396104 0)
(0.00295762 0.394316 0)
(0.00280256 0.384986 0)
(-0.000997769 0.400933 0)
(0.0154774 0.339684 0)
(-0.00464374 0.342586 0)
(0.00309857 0.464679 0)
(0.00495622 0.351156 0)
(0.000806511 0.325197 0)
(-0.0105096 0.340646 0)
(-0.00140028 0.4445 0)
(0.00165887 0.334423 0)
(-0.0121519 0.327479 0)
(-0.0128614 0.341509 0)
(-0.0181283 0.381244 0)
(-0.0181065 0.335488 0)
(-0.0243884 0.379151 0)
(-0.0103301 0.428071 0)
(-0.00875756 0.426305 0)
(0.00252699 0.412506 0)
(-0.000213455 0.404446 0)
(0.00263821 0.402573 0)
(-6.20534e-05 0.401351 0)
(0.00212108 0.400801 0)
(0.000985134 0.399571 0)
(0.00285686 0.39872 0)
(0.00175795 0.397417 0)
(0.00201916 0.389311 0)
(-0.00230602 0.400627 0)
(0.0122072 0.345084 0)
(-0.00844256 0.34878 0)
(0.00227278 0.460543 0)
(0.00546529 0.354621 0)
(0.000614143 0.333959 0)
(-0.0105802 0.344987 0)
(-0.00151107 0.440191 0)
(0.00426332 0.34102 0)
(-0.0101973 0.335868 0)
(-0.0108344 0.347556 0)
(-0.0168528 0.386026 0)
(-0.0169196 0.342171 0)
(-0.0228776 0.379105 0)
(-0.00978484 0.424034 0)
(-0.00726417 0.422785 0)
(0.00351631 0.412158 0)
(0.000689012 0.407305 0)
(0.00308214 0.405213 0)
(0.000518031 0.403977 0)
(0.00238511 0.403014 0)
(0.000981089 0.401857 0)
(0.00244306 0.401056 0)
(0.00104072 0.400054 0)
(0.00160849 0.392882 0)
(-0.00341515 0.401565 0)
(0.00874505 0.350045 0)
(-0.0117648 0.353655 0)
(0.00193405 0.454832 0)
(0.00623349 0.357587 0)
(0.000750429 0.342226 0)
(-0.0100217 0.349491 0)
(-0.00173294 0.435385 0)
(0.00599481 0.346833 0)
(-0.00837425 0.343631 0)
(-0.00903654 0.353227 0)
(-0.0151316 0.390481 0)
(-0.015218 0.348367 0)
(-0.0211084 0.379584 0)
(-0.00950529 0.420406 0)
(-0.00638478 0.419831 0)
(0.00280221 0.412627 0)
(0.000257309 0.409869 0)
(0.00272781 0.407507 0)
(0.000475921 0.40629 0)
(0.00223801 0.405018 0)
(0.000800207 0.403963 0)
(0.00206071 0.40318 0)
(0.000654126 0.402383 0)
(0.00140565 0.395971 0)
(-0.00403799 0.403066 0)
(0.00586573 0.355368 0)
(-0.0135978 0.357914 0)
(0.00197457 0.448025 0)
(0.00690315 0.360949 0)
(0.00118018 0.350011 0)
(-0.0089929 0.354301 0)
(-0.00189498 0.43062 0)
(0.00672086 0.352205 0)
(-0.00690635 0.35078 0)
(-0.00764382 0.358547 0)
(-0.0132537 0.394453 0)
(-0.0133032 0.353971 0)
(-0.0190809 0.380681 0)
(-0.00923086 0.417951 0)
(-0.00648582 0.418078 0)
(0.00100929 0.413264 0)
(-0.000934127 0.411821 0)
(0.00177682 0.4093 0)
(1.48454e-05 0.408233 0)
(0.00180003 0.406777 0)
(0.000502187 0.405868 0)
(0.00169312 0.405087 0)
(0.000451799 0.404432 0)
(0.00128618 0.398686 0)
(-0.00421605 0.404803 0)
(0.0039433 0.360539 0)
(-0.0137652 0.361823 0)
(0.00194976 0.440817 0)
(0.00706535 0.364092 0)
(0.00167495 0.357103 0)
(-0.0076989 0.359114 0)
(-0.00201432 0.426368 0)
(0.00644518 0.357154 0)
(-0.00584021 0.357134 0)
(-0.00670567 0.363212 0)
(-0.0115127 0.397614 0)
(-0.0114804 0.358785 0)
(-0.0169407 0.381797 0)
(-0.00888387 0.416518 0)
(-0.00709709 0.41716 0)
(-0.0010398 0.413594 0)
(-0.00229446 0.41297 0)
(0.000592363 0.410509 0)
(-0.000633765 0.409701 0)
(0.00118612 0.40821 0)
(0.000129831 0.407469 0)
(0.0013112 0.406683 0)
(0.000306763 0.406145 0)
(0.00117764 0.401023 0)
(-0.00392418 0.406679 0)
(0.00290054 0.365497 0)
(-0.0127197 0.365408 0)
(0.00179748 0.434082 0)
(0.00670677 0.367513 0)
(0.00193976 0.363415 0)
(-0.00637099 0.363854 0)
(-0.00207903 0.423335 0)
(0.00542638 0.361774 0)
(-0.00524098 0.36278 0)
(-0.00622995 0.367425 0)
(-0.0101102 0.400173 0)
(-0.0100844 0.362967 0)
(-0.0150777 0.382861 0)
(-0.0086352 0.415517 0)
(-0.00773427 0.416449 0)
(-0.00284579 0.413659 0)
(-0.00343077 0.413568 0)
(-0.000537212 0.411332 0)
(-0.00129307 0.410826 0)
(0.000519568 0.409392 0)
(-0.000251277 0.408829 0)
(0.000928712 0.40807 0)
(0.000174162 0.407618 0)
(0.00105442 0.403112 0)
(-0.00328977 0.408356 0)
(0.00250016 0.369897 0)
(-0.0109409 0.368822 0)
(0.00147361 0.428694 0)
(0.00587001 0.370487 0)
(0.00184286 0.368635 0)
(-0.00525253 0.368142 0)
(-0.00213672 0.42117 0)
(0.00405769 0.365768 0)
(-0.00499583 0.367477 0)
(-0.00608554 0.37113 0)
(-0.00907894 0.402223 0)
(-0.00914861 0.366532 0)
(-0.0136586 0.383883 0)
(-0.00849248 0.414691 0)
(-0.0080823 0.415834 0)
(-0.00405845 0.413593 0)
(-0.00418904 0.413859 0)
(-0.00146125 0.411932 0)
(-0.00185783 0.411693 0)
(-0.000107242 0.410395 0)
(-0.000611114 0.409986 0)
(0.000558399 0.409287 0)
(3.90878e-05 0.40892 0)
(0.000913074 0.404977 0)
(-0.00248251 0.409674 0)
(0.00246747 0.373564 0)
(-0.00885731 0.371983 0)
(0.00112794 0.424949 0)
(0.00469774 0.373097 0)
(0.00138478 0.372802 0)
(-0.00452676 0.371928 0)
(-0.00222442 0.41929 0)
(0.002698 0.369102 0)
(-0.00494222 0.371327 0)
(-0.00612418 0.374431 0)
(-0.00836363 0.403913 0)
(-0.00858552 0.369712 0)
(-0.0126 0.384957 0)
(-0.00843489 0.414129 0)
(-0.00816398 0.415399 0)
(-0.00479237 0.413551 0)
(-0.00464313 0.41406 0)
(-0.00218598 0.412433 0)
(-0.0023126 0.412394 0)
(-0.000665728 0.411252 0)
(-0.000927742 0.410984 0)
(0.000211125 0.41035 0)
(-9.97093e-05 0.410051 0)
(0.000760838 0.406637 0)
(-0.00167683 0.410477 0)
(0.0024893 0.376503 0)
(-0.00682507 0.374733 0)
(0.000785357 0.422046 0)
(0.00347278 0.375281 0)
(0.000734264 0.376036 0)
(-0.00416038 0.375116 0)
(-0.00233944 0.417433 0)
(0.00152557 0.371801 0)
(-0.00491545 0.374477 0)
(-0.00619398 0.377267 0)
(-0.0078513 0.405171 0)
(-0.0082252 0.372612 0)
(-0.0117209 0.386025 0)
(-0.00839221 0.413725 0)
(-0.00804823 0.41502 0)
(-0.00521625 0.413495 0)
(-0.0048903 0.41412 0)
(-0.00273872 0.41277 0)
(-0.00264956 0.412877 0)
(-0.00112802 0.411899 0)
(-0.00119123 0.411748 0)
(-0.000102273 0.411174 0)
(-0.000232968 0.410945 0)
(0.000603786 0.407982 0)
(-0.000984885 0.410818 0)
(0.00238116 0.378935 0)
(-0.00511903 0.377158 0)
(0.000470614 0.419517 0)
(0.00244652 0.377102 0)
(8.40246e-05 0.378699 0)
(-0.00399981 0.37785 0)
(-0.00245376 0.415684 0)
(0.0005678 0.373908 0)
(-0.00488245 0.377182 0)
(-0.0062435 0.379754 0)
(-0.007464 0.406092 0)
(-0.00796674 0.375346 0)
(-0.0109538 0.387073 0)
(-0.00834644 0.413389 0)
(-0.00784754 0.414678 0)
(-0.00547512 0.413404 0)
(-0.00501977 0.414077 0)
(-0.00315419 0.412959 0)
(-0.00289927 0.413148 0)
(-0.00151804 0.412331 0)
(-0.00141237 0.412253 0)
(-0.000384665 0.411758 0)
(-0.000355738 0.411565 0)
(0.000449465 0.409004 0)
(-0.00046196 0.410847 0)
(0.0021107 0.380968 0)
(-0.00382359 0.379333 0)
(0.000172715 0.417321 0)
(0.00170395 0.37888 0)
(-0.000493883 0.38091 0)
(-0.00391056 0.380248 0)
(-0.00258659 0.4141 0)
(-0.000223545 0.376057 0)
(-0.00480603 0.379491 0)
(-0.00625388 0.38202 0)
(-0.00711922 0.406732 0)
(-0.00774637 0.377886 0)
(-0.0102351 0.388117 0)
(-0.00825597 0.413083 0)
(-0.00759594 0.414305 0)
(-0.00563508 0.413262 0)
(-0.0050752 0.413924 0)
(-0.0034718 0.413016 0)
(-0.00308049 0.413246 0)
(-0.00183768 0.412557 0)
(-0.00159196 0.412544 0)
(-0.000633073 0.412126 0)
(-0.000464104 0.411978 0)
(0.00030372 0.409742 0)
(-8.63786e-05 0.410744 0)
(0.00172868 0.382728 0)
(-0.00288913 0.38134 0)
(-0.000105731 0.415547 0)
(0.00116589 0.380624 0)
(-0.000940018 0.38274 0)
(-0.00381847 0.382441 0)
(-0.00266058 0.41282 0)
(-0.000865249 0.378228 0)
(-0.0047137 0.381458 0)
(-0.00621755 0.384114 0)
(-0.00683492 0.407224 0)
(-0.0075114 0.380193 0)
(-0.00956493 0.389187 0)
(-0.00813942 0.412836 0)
(-0.0073492 0.413961 0)
(-0.0057354 0.413126 0)
(-0.0050862 0.413739 0)
(-0.00370844 0.413012 0)
(-0.00321186 0.413261 0)
(-0.00209109 0.412699 0)
(-0.00173007 0.412718 0)
(-0.000841408 0.412369 0)
(-0.000558086 0.412262 0)
(0.000171442 0.410295 0)
(0.000169572 0.41057 0)
(0.00132708 0.384269 0)
(-0.00220491 0.383119 0)
(-0.000325485 0.414173 0)
(0.000784167 0.382168 0)
(-0.00129967 0.384181 0)
(-0.00369604 0.384356 0)
(-0.0027902 0.411792 0)
(-0.00140177 0.380086 0)
(-0.00457757 0.383005 0)
(-0.00618173 0.385991 0)
(-0.00655041 0.407539 0)
(-0.00728572 0.382211 0)
(-0.00895274 0.39021 0)
(-0.00799399 0.412653 0)
(-0.00709572 0.413607 0)
(-0.0057837 0.412981 0)
(-0.00506669 0.413523 0)
(-0.00387457 0.412955 0)
(-0.0033011 0.413197 0)
(-0.00229668 0.412748 0)
(-0.00184082 0.41279 0)
(-0.00100915 0.412514 0)
(-0.000634598 0.412426 0)
(5.39685e-05 0.410679 0)
(0.000340593 0.410356 0)
(0.00089953 0.385529 0)
(-0.00169981 0.384673 0)
(-0.000578072 0.413067 0)
(0.000445261 0.38369 0)
(-0.00153328 0.385324 0)
(-0.00356483 0.386131 0)
(-0.00283868 0.410874 0)
(-0.00188559 0.381765 0)
(-0.00445324 0.384184 0)
(-0.00608162 0.38773 0)
(-0.00629556 0.407704 0)
(-0.00701902 0.383996 0)
(-0.00837872 0.391161 0)
(-0.00780889 0.412452 0)
(-0.0068713 0.413229 0)
(-0.00578927 0.41278 0)
(-0.00502602 0.413237 0)
(-0.00398898 0.41283 0)
(-0.00335299 0.413043 0)
(-0.002447 0.412707 0)
(-0.00192029 0.412754 0)
(-0.00114907 0.412538 0)
(-0.000696096 0.412466 0)
(-4.45481e-05 0.410888 0)
(0.000442679 0.410025 0)
(0.000564301 0.386592 0)
(-0.00135925 0.386098 0)
(-0.000614378 0.412137 0)
(8.10961e-05 0.385208 0)
(-0.00167006 0.386315 0)
(-0.00335859 0.387731 0)
(-0.00286173 0.410125 0)
(-0.00241226 0.383578 0)
(-0.00440642 0.385328 0)
(-0.00579407 0.389236 0)
(-0.00618291 0.407617 0)
(-0.00675505 0.385634 0)
(-0.0078918 0.392009 0)
(-0.00761602 0.412162 0)
(-0.00666544 0.412764 0)
(-0.00575401 0.41248 0)
(-0.00496535 0.412857 0)
(-0.0040525 0.412569 0)
(-0.0033783 0.412753 0)
(-0.00255909 0.412515 0)
(-0.00198107 0.412563 0)
(-0.00125908 0.412406 0)
(-0.00074663 0.412336 0)
(-0.000127296 0.410865 0)
(0.00041226 0.409546 0)
(0.0003665 0.387636 0)
(-0.000989933 0.387386 0)
(-0.000650165 0.411272 0)
(-0.00036561 0.386558 0)
(-0.00175263 0.387377 0)
(-0.00302699 0.38903 0)
(-0.00289694 0.409415 0)
(-0.00288257 0.384977 0)
(-0.00435103 0.386581 0)
(-0.00558535 0.390494 0)
(-0.00602438 0.407407 0)
(-0.00642739 0.387141 0)
(-0.00751813 0.392795 0)
(-0.00739461 0.411758 0)
(-0.00649214 0.412227 0)
(-0.0056874 0.412082 0)
(-0.00489976 0.41237 0)
(-0.00407283 0.41219 0)
(-0.00338331 0.412331 0)
(-0.0026284 0.412174 0)
(-0.0020182 0.41223 0)
(-0.00134316 0.412106 0)
(-0.00078473 0.41206 0)
(-0.000193152 0.410679 0)
(0.000375912 0.409005 0)
(0.000274538 0.388605 0)
(-0.000770005 0.388423 0)
(-0.000679327 0.41046 0)
(-0.000645758 0.387726 0)
(-0.00180104 0.388387 0)
(-0.00287566 0.390103 0)
(-0.00291733 0.408771 0)
(-0.00307484 0.386258 0)
(-0.00431859 0.387705 0)
(-0.00543738 0.391565 0)
(-0.00584582 0.407192 0)
(-0.00616435 0.388381 0)
(-0.00722755 0.39355 0)
(-0.00713068 0.411291 0)
(-0.0063314 0.411653 0)
(-0.00558211 0.411608 0)
(-0.00482717 0.411811 0)
(-0.00407066 0.41172 0)
(-0.00337445 0.41185 0)
(-0.0026652 0.411736 0)
(-0.00203171 0.411776 0)
(-0.0013979 0.411714 0)
(-0.000810035 0.411673 0)
(-0.000240599 0.410339 0)
(0.000356869 0.408457 0)
(0.000255881 0.38971 0)
(-0.000678233 0.389549 0)
(-0.00069628 0.409825 0)
(-0.000773541 0.38891 0)
(-0.00182836 0.388809 0)
(-0.00279487 0.391226 0)
(-0.00291826 0.408384 0)
(-0.0031485 0.386898 0)
(-0.00428162 0.388779 0)
(-0.00531575 0.392665 0)
(-0.00566949 0.407011 0)
(-0.00593989 0.389656 0)
(-0.00697965 0.394456 0)
(-0.00690893 0.410799 0)
(-0.00618576 0.411053 0)
(-0.00547206 0.411102 0)
(-0.00474909 0.411238 0)
(-0.00403258 0.41124 0)
(-0.00334386 0.411302 0)
(-0.00267755 0.41129 0)
(-0.00204114 0.4113 0)
(-0.00142151 0.411284 0)
(-0.000824681 0.411252 0)
(-0.000262914 0.409963 0)
(0.000352066 0.407907 0)
(0.000257719 0.390325 0)
(-0.000624534 0.390417 0)
(-0.000696841 0.409238 0)
(-0.00081757 0.389273 0)
(-0.00182751 0.385269 0)
(-0.00275089 0.392113 0)
(-0.00290787 0.407954 0)
(-0.00314808 0.38591 0)
(-0.00422348 0.387022 0)
(-0.00521406 0.393568 0)
(-0.00551851 0.406778 0)
(-0.00575911 0.390385 0)
(-0.00677966 0.395264 0)
(-0.00671599 0.410308 0)
(-0.00602975 0.410494 0)
(-0.00534314 0.410577 0)
(-0.00465266 0.410687 0)
(-0.00396764 0.410755 0)
(-0.00330898 0.410811 0)
(-0.00265969 0.410836 0)
(-0.00203378 0.410859 0)
(-0.0014309 0.410853 0)
(-0.000833191 0.410828 0)
(-0.000272825 0.409565 0)
(0.000364945 0.407304 0)
(0.000284989 0.38797 0)
(-0.00059467 0.390326 0)
(-0.000686095 0.408679 0)
(-0.000827231 0.386513 0)
(-0.00181032 0.386145 0)
(-0.00272009 0.392452 0)
(-0.00288129 0.407524 0)
(-0.00309294 0.386177 0)
(-0.00415797 0.386289 0)
(-0.00510631 0.393938 0)
(-0.00536304 0.406405 0)
(-0.00558263 0.388045 0)
(-0.00661 0.396119 0)
(-0.00657721 0.409769 0)
(-0.00589709 0.40994 0)
(-0.00522356 0.410032 0)
(-0.00454232 0.410147 0)
(-0.00388325 0.41022 0)
(-0.00324414 0.410291 0)
(-0.00261859 0.410354 0)
(-0.00201178 0.410386 0)
(-0.0014224 0.410394 0)
(-0.000832822 0.410382 0)
(-0.00027616 0.409125 0)
(0.000376583 0.405871 0)
(0.000308712 0.387417 0)
(-0.000567218 0.387531 0)
(-0.000676526 0.40764 0)
(-0.000799239 0.387015 0)
(-0.00177703 0.387463 0)
(-0.00268186 0.389056 0)
(-0.00282543 0.405683 0)
(-0.00301575 0.387474 0)
(-0.00407325 0.387797 0)
(-0.00498603 0.390446 0)
(-0.00520516 0.403369 0)
(-0.00545929 0.387932 0)
(-0.00643807 0.394579 0)
(-0.00642498 0.408898 0)
(-0.00575248 0.409143 0)
(-0.0050914 0.409283 0)
(-0.00442862 0.409422 0)
(-0.00378591 0.409516 0)
(-0.00315957 0.409594 0)
(-0.00255889 0.409652 0)
(-0.00197328 0.40969 0)
(-0.00140053 0.409732 0)
(-0.000825601 0.409673 0)
(-0.000274985 0.408269 0)
(0.000384436 0.400448 0)
(0.00033386 0.389023 0)
(-0.000558348 0.388645 0)
(-0.000656004 0.402387 0)
(-0.000750579 0.388552 0)
(-0.00173615 0.388468 0)
(-0.00263485 0.389736 0)
(-0.00274725 0.400549 0)
(-0.00290446 0.388729 0)
(-0.00395926 0.38896 0)
(-0.00485856 0.391043 0)
(-0.00503123 0.399779 0)
(-0.00530161 0.389625 0)
(-0.00626986 0.392248 0)
(-0.006278 0.404072 0)
(-0.00558964 0.404478 0)
(-0.0049418 0.404846 0)
(-0.00430251 0.405116 0)
(-0.00367649 0.405228 0)
(-0.00307515 0.40534 0)
(-0.00248778 0.405369 0)
(-0.00191879 0.405312 0)
(-0.0013663 0.405369 0)
(-0.000805865 0.405107 0)
(-0.000268492 0.403389 0)
(0.000417896 0.399698 0)
(0.000373129 0.389909 0)
(-0.000545686 0.38985 0)
(-0.000616007 0.400888 0)
(-0.00068425 0.389443 0)
(-0.00168814 0.389414 0)
(-0.00258433 0.390969 0)
(-0.0026561 0.400384 0)
(-0.00278709 0.389683 0)
(-0.00384082 0.389915 0)