/*--------------------------------*- C++ -*----------------------------------*\
  =========                 |
  \\      /  F ield         | OpenFOAM: The Open Source CFD Toolbox
   \\    /   O peration     | Website:  https://openfoam.org
    \\  /    A nd           | Version:  dev
     \\/     M anipulation  |
\*---------------------------------------------------------------------------*/
FoamFile
{
    version     2.0;
    format      ascii;
    class       volVectorField;
    location    "1";
    object      U.waterMean;
}
// * * * * * * * * * * * * * * * * * * * * * * * * * * * * * * * * * * * * * //

dimensions      [0 1 -1 0 0 0 0];

internalField   nonuniform List<vector> 
1875
(
(0.00506587 -0.034989 0)
(-0.0141694 -0.0491991 0)
(0.0079612 -0.0470126 0)
(-0.00601395 -0.0461863 0)
(-0.000435407 -0.0466376 0)
(0.00111658 -0.0494301 0)
(0.0146215 -0.0451072 0)
(0.00815774 -0.0447366 0)
(0.00203767 -0.0470604 0)
(0.0134915 -0.0507263 0)
(0.019782 -0.0454768 0)
(0.024223 -0.0453904 0)
(0.0160624 -0.0493291 0)
(0.0339792 -0.0516398 0)
(0.0320029 -0.0442613 0)
(0.0335733 -0.0424963 0)
(0.0283158 -0.0434732 0)
(0.0298146 -0.0442105 0)
(0.0243526 -0.0439061 0)
(0.0232809 -0.0435964 0)
(0.0173609 -0.0432645 0)
(0.0158376 -0.0426064 0)
(0.0100331 -0.0436245 0)
(0.0089161 -0.0421018 0)
(0.00327912 -0.0305028 0)
(0.00960101 0.0104725 0)
(-0.017602 0.00307265 0)
(0.0162349 -0.00054947 0)
(-0.00651691 0.0164808 0)
(-0.00307134 -0.000244022 0)
(0.00347261 -0.0102461 0)
(0.0228475 -0.00262983 0)
(0.0189975 0.0138884 0)
(0.00855948 0.00402273 0)
(0.0213103 -0.0108762 0)
(0.0350245 -0.00911918 0)
(0.0455257 0.00867028 0)
(0.0340946 0.000433502 0)
(0.0505004 -0.00718398 0)
(0.052442 0.00223065 0)
(0.0528302 0.00961573 0)
(0.0421737 0.0118538 0)
(0.0385289 0.012508 0)
(0.0283399 0.0133379 0)
(0.0247687 0.0134827 0)
(0.0163036 0.0134757 0)
(0.012757 0.0130239 0)
(0.00546163 0.0135747 0)
(-0.000296381 0.0119651 0)
(-0.0053199 0.00656597 0)
(0.00344585 0.018029 0)
(-0.0209338 -0.00418377 0)
(0.0115589 -0.00980174 0)
(-0.00928403 0.0241048 0)
(-0.00239424 -0.00879281 0)
(0.00255596 -0.0201773 0)
(0.0189647 -0.0129163 0)
(0.018699 0.0219031 0)
(0.00984324 -0.0035705 0)
(0.0230906 -0.0217322 0)
(0.0331793 -0.0202297 0)
(0.0440733 0.00701762 0)
(0.0356231 -0.00737875 0)
(0.0518166 -0.0155948 0)
(0.0513805 0.00290261 0)
(0.0515354 0.015133 0)
(0.039666 0.0172778 0)
(0.0361943 0.0187026 0)
(0.0268478 0.0185898 0)
(0.0253693 0.0181996 0)
(0.0182955 0.0179037 0)
(0.0166275 0.0180032 0)
(0.00941973 0.0189165 0)
(0.00840712 0.0186542 0)
(0.000291073 0.012971 0)
(0.00238021 0.0350399 0)
(-0.0149919 0.00212611 0)
(0.00728827 -0.00513138 0)
(-0.00758676 0.039847 0)
(-0.00243528 -0.00510752 0)
(0.000462227 -0.0221737 0)
(0.0149747 -0.0122751 0)
(0.0146916 0.033464 0)
(0.0119577 0.0049676 0)
(0.0200993 -0.0241123 0)
(0.0321451 -0.0227754 0)
(0.040229 0.0150629 0)
(0.0352225 -0.00198735 0)
(0.0489643 -0.013289 0)
(0.047443 0.00997984 0)
(0.0506676 0.0261982 0)
(0.0405095 0.0327672 0)
(0.0371497 0.0338007 0)
(0.0271774 0.0329096 0)
(0.0243744 0.0315555 0)
(0.0164211 0.0310752 0)
(0.0142239 0.0307392 0)
(0.00706508 0.0301738 0)
(0.00666621 0.0293317 0)
(0.000485334 0.0239844 0)
(0.00322116 0.0376618 0)
(-0.0135889 -0.00195295 0)
(0.00499724 -0.00990196 0)
(-0.00816455 0.0416996 0)
(-0.00410372 -0.0122588 0)
(-0.00141868 -0.0301894 0)
(0.0148222 -0.0204186 0)
(0.0128764 0.0332428 0)
(0.0103001 -0.00258209 0)
(0.0183353 -0.034081 0)
(0.0336115 -0.0338493 0)
(0.0399206 0.0111383 0)
(0.0351159 -0.0101557 0)
(0.0510736 -0.019701 0)
(0.0477406 0.00748676 0)
(0.0502649 0.0276433 0)
(0.0405305 0.0358727 0)
(0.0371244 0.0393508 0)
(0.0269954 0.0383755 0)
(0.0244875 0.0365493 0)
(0.0162716 0.0353193 0)
(0.0145423 0.0348592 0)
(0.00736187 0.033781 0)
(0.00652587 0.0326531 0)
(0.000253663 0.0273205 0)
(0.00100135 0.0507563 0)
(-0.0134795 0.00654871 0)
(0.00308288 -0.00474655 0)
(-0.00957545 0.0542169 0)
(-0.0109052 -0.00968253 0)
(-0.00399381 -0.0361591 0)
(0.0171426 -0.0213588 0)
(0.0138644 0.0442543 0)
(0.00774512 0.00408078 0)
(0.0135501 -0.0408517 0)
(0.0372898 -0.0393597 0)
(0.0402228 0.018821 0)
(0.0335307 -0.00890864 0)
(0.0516666 -0.0187277 0)
(0.0493525 0.0148947 0)
(0.0508504 0.0392538 0)
(0.0406508 0.0494828 0)
(0.0363863 0.0527767 0)
(0.025674 0.0508403 0)
(0.0228742 0.0483008 0)
(0.0145846 0.0466408 0)
(0.0127496 0.0456434 0)
(0.00592848 0.0439561 0)
(0.00523533 0.042359 0)
(-0.000117693 0.0364689 0)
(0.00030414 0.0572903 0)
(-0.0134237 0.00523813 0)
(0.00198895 -0.00617937 0)
(-0.00899858 0.0620223 0)
(-0.0153089 -0.0108136 0)
(-0.00694628 -0.0509546 0)
(0.0208116 -0.0312214 0)
(0.0151804 0.0496823 0)
(0.00613626 0.00411545 0)
(0.0117981 -0.0554761 0)
(0.0420666 -0.0538175 0)
(0.0411394 0.0217648 0)
(0.0314999 -0.015188 0)
(0.0551272 -0.0256559 0)
(0.0532307 0.0145124 0)
(0.0528741 0.0445587 0)
(0.0404602 0.0565182 0)
(0.0364121 0.0613267 0)
(0.0244181 0.0588604 0)
(0.0214509 0.0552833 0)
(0.012732 0.0527385 0)
(0.0111981 0.0511155 0)
(0.00446253 0.0486679 0)
(0.004313 0.0461789 0)
(-0.000674894 0.0395386 0)
(-0.000287442 0.0695399 0)
(-0.0152617 0.013426 0)
(0.0023079 -0.00241541 0)
(-0.00502269 0.0768323 0)
(-0.020127 -0.00479577 0)
(-0.00622645 -0.0636302 0)
(0.0262264 -0.0373435 0)
(0.0171153 0.0634544 0)
(0.000655363 0.0130376 0)
(0.01217 -0.0677024 0)
(0.0481931 -0.0625982 0)
(0.0391968 0.0350262 0)
(0.0238236 -0.0169598 0)
(0.0579027 -0.0297453 0)
(0.0568583 0.0227272 0)
(0.0549489 0.0589423 0)
(0.0396148 0.0709923 0)
(0.0344039 0.0744992 0)
(0.0223067 0.0711714 0)
(0.0194694 0.0662238 0)
(0.0110445 0.0628493 0)
(0.00954091 0.0603064 0)
(0.00310465 0.0569837 0)
(0.00293827 0.0537934 0)
(-0.00115731 0.0460365 0)
(-0.000930796 0.0794367 0)
(-0.0163134 0.0135887 0)
(0.00735283 -0.00859885 0)
(0.00386477 0.0900443 0)
(-0.0188708 0.00062442 0)
(0.00182942 -0.0803937 0)
(0.0324952 -0.0445287 0)
(0.0216071 0.0796243 0)
(-0.00400488 0.0169438 0)
(0.0165497 -0.0825664 0)
(0.0500698 -0.0670918 0)
(0.0371247 0.0547118 0)
(0.0117528 -0.0268871 0)
(0.062637 -0.042948 0)
(0.0585537 0.0247636 0)
(0.0555642 0.0700615 0)
(0.0358178 0.0833658 0)
(0.030478 0.0852678 0)
(0.0177654 0.0800714 0)
(0.0152823 0.0736213 0)
(0.0072311 0.0694265 0)
(0.00624249 0.0662489 0)
(0.000464229 0.0622851 0)
(0.00070748 0.0576155 0)
(-0.00236769 0.048233 0)
(-0.000469078 0.092314 0)
(-0.0172478 0.0169168 0)
(0.0141546 -0.015228 0)
(0.0141684 0.107296 0)
(-0.00548029 0.0112548 0)
(0.0158636 -0.0883072 0)
(0.0364269 -0.0450441 0)
(0.0270322 0.104475 0)
(-0.000659064 0.0269678 0)
(0.0264927 -0.0950916 0)
(0.0461373 -0.0658711 0)
(0.028708 0.0836374 0)
(0.00370463 -0.0336667 0)
(0.0654197 -0.0542214 0)
(0.0528725 0.0368471 0)
(0.0516458 0.0895915 0)
(0.0284377 0.101631 0)
(0.0236576 0.0988273 0)
(0.0116298 0.091822 0)
(0.010186 0.0831031 0)
(0.00309437 0.077875 0)
(0.00286034 0.0734468 0)
(-0.00186478 0.0686983 0)
(-0.00156817 0.0628468 0)
(-0.00320358 0.0506462 0)
(-0.00149591 0.103505 0)
(-0.0195672 0.0131181 0)
(0.0227374 -0.0314824 0)
(0.0207631 0.115142 0)
(0.00808702 0.0153253 0)
(0.026669 -0.09629 0)
(0.0335089 -0.042424 0)
(0.0234388 0.125327 0)
(0.00173701 0.028016 0)
(0.035943 -0.107791 0)
(0.0334312 -0.0544776 0)
(0.0114676 0.114901 0)
(0.0123487 -0.0525155 0)
(0.0576455 -0.0647649 0)
(0.0369578 0.0486856 0)
(0.0295065 0.105229 0)
(0.0121286 0.117644 0)
(0.010364 0.108896 0)
(0.0027282 0.0995897 0)
(0.00386372 0.0889497 0)
(-0.00144415 0.0832771 0)
(-0.000859953 0.0780898 0)
(-0.00489602 0.0733354 0)
(-0.00422234 0.0657145 0)
(-0.0045555 0.0506052 0)
(-0.0029934 0.118517 0)
(-0.0198632 0.00676284 0)
(0.023409 -0.043101 0)
(0.0163521 0.127996 0)
(0.00825181 0.0173606 0)
(0.0298165 -0.0999912 0)
(0.0219074 -0.0304798 0)
(0.00280232 0.149578 0)
(-0.000879463 0.0223261 0)
(0.0382364 -0.113469 0)
(0.0109845 -0.0324657 0)
(-0.00364918 0.126937 0)
(0.020654 -0.0717766 0)
(0.0285093 -0.0625983 0)
(-0.00952213 0.0827771 0)
(-0.00814821 0.125836 0)
(-0.0134939 0.127776 0)
(-0.00622254 0.114973 0)
(-0.00794115 0.104213 0)
(-0.00351746 0.0937379 0)
(-0.00673107 0.0887069 0)
(-0.00549339 0.0833597 0)
(-0.00832016 0.0781982 0)
(-0.00749047 0.0686908 0)
(-0.00572992 0.0492886 0)
(-0.00382448 0.132166 0)
(-0.015619 8.96108e-05 0)
(0.0184115 -0.0475857 0)
(0.0031248 0.141475 0)
(0.0014883 0.0112847 0)
(0.0188044 -0.101387 0)
(-0.00519222 -0.00210591 0)
(-0.023414 0.16517 0)
(0.00647949 -0.00180502 0)
(0.0264628 -0.109505 0)
(-0.0118115 -0.00617464 0)
(-0.0119928 0.122796 0)
(0.0154152 -0.0795373 0)
(-0.00793234 -0.0285055 0)
(-0.0431051 0.102523 0)
(-0.0311622 0.127939 0)
(-0.0291929 0.124273 0)
(-0.0160431 0.111056 0)
(-0.0146922 0.103205 0)
(-0.00883249 0.0946551 0)
(-0.0100473 0.0918026 0)
(-0.00793033 0.0865348 0)
(-0.010019 0.0819122 0)
(-0.00940159 0.0699865 0)
(-0.00667734 0.0460192 0)
(-0.00255636 0.144293 0)
(-0.00861872 -0.0026157 0)
(0.00809337 -0.0447339 0)
(-0.0127814 0.160219 0)
(0.00053876 0.005943 0)
(-0.00137704 -0.0879172 0)
(-0.0192794 0.0222062 0)
(-0.0273479 0.15741 0)
(0.00588997 -0.0235642 0)
(0.0102138 -0.0903825 0)
(-0.0234301 0.0101315 0)
(-0.00895736 0.11146 0)
(0.0036921 -0.0746523 0)
(-0.0243304 -0.00194387 0)
(-0.0462747 0.115037 0)
(-0.0366011 0.125539 0)
(-0.0321394 0.120188 0)
(-0.020626 0.107512 0)
(-0.0180258 0.102976 0)
(-0.0128541 0.0956574 0)
(-0.0118712 0.094167 0)
(-0.01038 0.0899376 0)
(-0.0108906 0.0860267 0)
(-0.0112242 0.0720487 0)
(-0.00771406 0.0419067 0)
(0.000931236 0.150592 0)
(-0.00604605 0.00146528 0)
(0.000731463 -0.034345 0)
(-0.0177637 0.166513 0)
(0.00109693 0.00199513 0)
(-0.0107039 -0.0760276 0)
(-0.0167725 0.0291751 0)
(-0.0189675 0.152099 0)
(0.000598077 -0.0330507 0)
(-0.00160879 -0.0751497 0)
(-0.0269176 0.0158662 0)
(-0.00705961 0.102622 0)
(-0.00107314 -0.061387 0)
(-0.0298765 0.0213837 0)
(-0.0413958 0.120638 0)
(-0.0346406 0.122598 0)
(-0.0298884 0.115203 0)
(-0.0219732 0.103607 0)
(-0.0187862 0.101704 0)
(-0.014464 0.0952631 0)
(-0.0119382 0.0960343 0)
(-0.0106678 0.0926809 0)
(-0.00968322 0.0896414 0)
(-0.0115311 0.0737029 0)
(-0.00795202 0.0366738 0)
(0.00435287 0.155692 0)
(-0.00508783 0.0070738 0)
(-0.00129271 -0.0286676 0)
(-0.0133951 0.171084 0)
(-0.000463924 0.00181217 0)
(-0.0143864 -0.065916 0)
(-0.0133655 0.0347956 0)
(-0.0102633 0.14996 0)
(-0.00273829 -0.0354751 0)
(-0.00748349 -0.0593739 0)
(-0.0277151 0.0192972 0)
(-0.00787579 0.0929366 0)
(-0.00519995 -0.0486021 0)
(-0.028951 0.0388243 0)
(-0.0336622 0.126757 0)
(-0.030784 0.12151 0)
(-0.026286 0.11423 0)
(-0.0226279 0.102695 0)
(-0.0181563 0.101684 0)
(-0.0149974 0.0954712 0)
(-0.0108905 0.0972225 0)
(-0.00957561 0.0948523 0)
(-0.00724473 0.093694 0)
(-0.0109328 0.0771128 0)
(-0.00633063 0.0330042 0)
(0.00730194 0.158536 0)
(0.001917 0.0135768 0)
(-0.00182767 -0.0246255 0)
(-0.00570738 0.17552 0)
(0.000385219 0.006022 0)
(-0.0145336 -0.0584721 0)
(-0.0111886 0.030221 0)
(-0.00131065 0.150956 0)
(-0.00560257 -0.0309875 0)
(-0.010891 -0.0474772 0)
(-0.0255188 0.0214597 0)
(-0.00904346 0.0872943 0)
(-0.00804863 -0.0363967 0)
(-0.0279627 0.0519771 0)
(-0.0270937 0.130479 0)
(-0.0273908 0.122156 0)
(-0.0233221 0.113338 0)
(-0.0218589 0.102012 0)
(-0.0164824 0.10096 0)
(-0.0139049 0.0951204 0)
(-0.008768 0.097919 0)
(-0.00762102 0.09651 0)
(-0.00261881 0.0976025 0)
(-0.0069514 0.0809975 0)
(-0.00149564 0.032027 0)
(0.00813598 0.155275 0)
(0.010873 0.0208893 0)
(-0.00195232 -0.0203513 0)
(0.00143211 0.178468 0)
(0.00541032 0.0147918 0)
(-0.00934351 -0.0494846 0)
(-0.0118965 0.0260355 0)
(0.000931479 0.153038 0)
(-0.00541521 -0.0218438 0)
(-0.0126229 -0.0361394 0)
(-0.0232436 0.0236588 0)
(-0.0101165 0.0829254 0)
(-0.00968452 -0.0253861 0)
(-0.0268774 0.0609823 0)
(-0.0222665 0.134117 0)
(-0.0250848 0.124235 0)
(-0.0199028 0.11437 0)
(-0.0204345 0.102353 0)
(-0.0144164 0.100718 0)
(-0.0127227 0.0948496 0)
(-0.00685542 0.0980507 0)
(-0.00563862 0.0959751 0)
(0.00199678 0.100013 0)
(0.000217497 0.0853055 0)
(0.00444997 0.0355477 0)
(0.00598563 0.14831 0)
(0.0164239 0.0275811 0)
(-0.00123932 -0.0135936 0)
(0.00367974 0.17623 0)
(0.00747054 0.0218172 0)
(-0.00564622 -0.037929 0)
(-0.012534 0.0246835 0)
(-0.00157591 0.152552 0)
(-0.00546347 -0.0136251 0)
(-0.0145268 -0.0262049 0)
(-0.0211552 0.0259866 0)
(-0.0112442 0.0807774 0)
(-0.0109742 -0.0149805 0)
(-0.026376 0.0682332 0)
(-0.0192941 0.136558 0)
(-0.0235174 0.126515 0)
(-0.017185 0.115205 0)
(-0.0182018 0.102507 0)
(-0.0118602 0.10018 0)
(-0.0110617 0.0944498 0)
(-0.00520585 0.097694 0)
(-0.00378734 0.0948323 0)
(0.00309481 0.100021 0)
(0.00575973 0.0874244 0)
(0.00720981 0.0425572 0)
(0.00286712 0.140635 0)
(0.0187546 0.031524 0)
(8.60875e-05 -0.00473734 0)
(0.00407069 0.174961 0)
(0.00714252 0.0290679 0)
(-0.00361938 -0.0270355 0)
(-0.0120976 0.0261311 0)
(-0.00429787 0.152771 0)
(-0.00592082 -0.00501944 0)
(-0.0160574 -0.0168826 0)
(-0.0201267 0.0277548 0)
(-0.0122345 0.0794211 0)
(-0.0117775 -0.00550301 0)
(-0.0258053 0.0734004 0)
(-0.0172474 0.138797 0)
(-0.0220105 0.129068 0)
(-0.0150619 0.116454 0)
(-0.0163355 0.103288 0)
(-0.00948777 0.100429 0)
(-0.0096279 0.0948815 0)
(-0.0039331 0.0976497 0)
(-0.00273163 0.0947573 0)
(0.00283763 0.0985267 0)
(0.00734813 0.0888458 0)
(0.00764291 0.0519068 0)
(7.09755e-05 0.13382 0)
(0.0192649 0.0338019 0)
(0.000298911 0.00456902 0)
(0.00399789 0.174194 0)
(0.00714989 0.0347268 0)
(-0.00249044 -0.0165229 0)
(-0.0111975 0.0294464 0)
(-0.00536899 0.152827 0)
(-0.00591832 0.00223209 0)
(-0.0163738 -0.00860358 0)
(-0.0192605 0.0291758 0)
(-0.0131425 0.0787053 0)
(-0.0124938 0.00332438 0)
(-0.0257745 0.0780504 0)
(-0.0161447 0.140288 0)
(-0.0204453 0.131311 0)
(-0.0130469 0.117479 0)
(-0.0143372 0.104046 0)
(-0.0073456 0.100819 0)
(-0.00786632 0.0958015 0)
(-0.00267509 0.0981888 0)
(-0.00161412 0.0955761 0)
(0.00262694 0.0978036 0)
(0.00686943 0.0902992 0)
(0.00708238 0.0609952 0)
(-0.00124469 0.128111 0)
(0.0191582 0.0349892 0)
(9.9406e-05 0.0142844 0)
(0.00419273 0.173348 0)
(0.00714318 0.0407251 0)
(-0.00169615 -0.00656751 0)
(-0.00997078 0.0331191 0)
(-0.00490797 0.153591 0)
(-0.00544102 0.0100157 0)
(-0.0160308 -0.000461754 0)
(-0.018503 0.0309157 0)
(-0.0143203 0.0784369 0)
(-0.0135825 0.0119283 0)
(-0.0259931 0.0817191 0)
(-0.0151283 0.140836 0)
(-0.0185971 0.132998 0)
(-0.0107997 0.118278 0)
(-0.0121695 0.104921 0)
(-0.00534184 0.101778 0)
(-0.00622054 0.0973529 0)
(-0.00153699 0.0991979 0)
(-0.000793833 0.0971166 0)
(0.00270483 0.0979523 0)
(0.00611567 0.092146 0)
(0.00614202 0.0697952 0)
(-0.00111488 0.122749 0)
(0.018287 0.0363288 0)
(-0.000403699 0.0232989 0)
(0.0043722 0.172451 0)
(0.00698544 0.0457633 0)
(-0.000383923 0.00260982 0)
(-0.0091043 0.0366509 0)
(-0.00362756 0.154461 0)
(-0.00401027 0.0172998 0)
(-0.0148343 0.00717777 0)
(-0.0169356 0.0335487 0)
(-0.0153156 0.0790649 0)
(-0.0146336 0.0196747 0)
(-0.02566 0.0843472 0)
(-0.0139839 0.140359 0)
(-0.0163315 0.134012 0)
(-0.00808676 0.119043 0)
(-0.00961747 0.106035 0)
(-0.00324991 0.103053 0)
(-0.00454036 0.099483 0)
(-0.000500361 0.100742 0)
(-0.000131727 0.0991371 0)
(0.00298622 0.0989648 0)
(0.00522342 0.0946339 0)
(0.00502936 0.0774698 0)
(-0.000602333 0.117771 0)
(0.0170297 0.0381002 0)
(-0.00136546 0.0317959 0)
(0.00435947 0.171373 0)
(0.0065533 0.050315 0)
(0.000687993 0.0114302 0)
(-0.00892178 0.0401953 0)
(-0.00228566 0.154742 0)
(-0.00200998 0.0248428 0)
(-0.0133202 0.0148229 0)
(-0.0151945 0.0371458 0)
(-0.0159375 0.0809468 0)
(-0.0152932 0.0267534 0)
(-0.0248572 0.0857459 0)
(-0.0126172 0.138936 0)
(-0.013661 0.134302 0)
(-0.0049265 0.119573 0)
(-0.0065613 0.107455 0)
(-0.00108116 0.104793 0)
(-0.00288595 0.102128 0)
(0.000440702 0.102803 0)
(0.000402305 0.101443 0)
(0.00319224 0.100676 0)
(0.00425765 0.0975222 0)
(0.00388671 0.0842469 0)
(-0.000396247 0.113259 0)
(0.0152779 0.0407215 0)
(-0.00284577 0.0393635 0)
(0.00406044 0.170031 0)
(0.00586038 0.053859 0)
(0.00130267 0.0196679 0)
(-0.00913251 0.0434081 0)
(-0.00137103 0.153637 0)
(0.00020163 0.0316396 0)
(-0.0115878 0.0221566 0)
(-0.0132987 0.0413937 0)
(-0.0159749 0.0834244 0)
(-0.0153946 0.032936 0)
(-0.0236629 0.0861963 0)
(-0.011214 0.136575 0)
(-0.0109365 0.133539 0)
(-0.00138696 0.119848 0)
(-0.00349442 0.109033 0)
(0.000834707 0.106602 0)
(-0.00142285 0.10465 0)
(0.00122421 0.104809 0)
(0.000729732 0.103456 0)
(0.00309042 0.102511 0)
(0.0030227 0.100197 0)
(0.00281471 0.0895735 0)
(-0.000910928 0.109947 0)
(0.0132062 0.0440261 0)
(-0.00496122 0.0462465 0)
(0.00344672 0.168251 0)
(0.00542819 0.0571177 0)
(0.00151492 0.0276917 0)
(-0.00929631 0.0466363 0)
(-0.000997887 0.151031 0)
(0.00236382 0.0381908 0)
(-0.00996586 0.0295938 0)
(-0.0114204 0.0461977 0)
(-0.0154958 0.0866464 0)
(-0.015041 0.0387144 0)
(-0.0224355 0.0859225 0)
(-0.0100515 0.133456 0)
(-0.00872198 0.131559 0)
(0.00144785 0.119478 0)
(-0.00107877 0.110599 0)
(0.00202452 0.108372 0)
(-0.000325146 0.106818 0)
(0.0017748 0.106429 0)
(0.000897125 0.105103 0)
(0.00272688 0.104159 0)
(0.00189964 0.102535 0)
(0.00204047 0.0936456 0)
(-0.00185926 0.10785 0)
(0.0106358 0.0479739 0)
(-0.0075513 0.0522966 0)
(0.00258998 0.1653 0)
(0.00543969 0.0596491 0)
(0.00146953 0.0353317 0)
(-0.00914335 0.0498176 0)
(-0.0010768 0.14704 0)
(0.00414248 0.0438015 0)
(-0.00840115 0.0367454 0)
(-0.0096787 0.0510298 0)
(-0.0144273 0.089991 0)
(-0.0141247 0.0440607 0)
(-0.020965 0.0853475 0)
(-0.00931156 0.129938 0)
(-0.00716408 0.128703 0)
(0.00263337 0.118826 0)
(1.22391e-05 0.11228 0)
(0.00243818 0.110093 0)
(0.000214576 0.108636 0)
(0.0019964 0.10782 0)
(0.000864289 0.106519 0)
(0.0022885 0.105645 0)
(0.00110405 0.104452 0)
(0.00158225 0.0966706 0)
(-0.00285483 0.106954 0)
(0.00797979 0.052296 0)
(-0.00992164 0.0574036 0)
(0.00201235 0.160607 0)
(0.00577635 0.0620476 0)
(0.0014512 0.0428012 0)
(-0.00859409 0.0532243 0)
(-0.00131962 0.142346 0)
(0.00527833 0.0488862 0)
(-0.00711752 0.0437332 0)
(-0.00824572 0.0558305 0)
(-0.0130889 0.0934226 0)
(-0.0129323 0.0492403 0)
(-0.0194045 0.0849327 0)
(-0.00892411 0.126538 0)
(-0.00628479 0.125773 0)
(0.0022707 0.11811 0)
(-0.000129867 0.113892 0)
(0.0022051 0.111573 0)
(0.000238838 0.110192 0)
(0.0019034 0.109033 0)
(0.000694817 0.107841 0)
(0.00190105 0.107013 0)
(0.000670157 0.106095 0)
(0.00135158 0.0991358 0)
(-0.0034344 0.107039 0)
(0.00563601 0.0568129 0)
(-0.0113184 0.0614786 0)
(0.00184052 0.154366 0)
(0.00600843 0.06419 0)
(0.0015574 0.0497775 0)
(-0.00772553 0.0568802 0)
(-0.00158981 0.137391 0)
(0.00564542 0.0533672 0)
(-0.00605868 0.0501948 0)
(-0.00709992 0.0603339 0)
(-0.0116362 0.0964967 0)
(-0.0115477 0.0540752 0)
(-0.0175821 0.084735 0)
(-0.0086118 0.123505 0)
(-0.00610882 0.123281 0)
(0.000941052 0.117539 0)
(-0.000994755 0.115153 0)
(0.00148294 0.112722 0)
(-0.000114081 0.111474 0)
(0.00153739 0.110099 0)
(0.000417188 0.109047 0)
(0.00153736 0.108251 0)
(0.000426729 0.107503 0)
(0.00121967 0.101237 0)
(-0.00357097 0.107827 0)
(0.00399979 0.0614246 0)
(-0.0115033 0.0646832 0)
(0.00185113 0.147463 0)
(0.00599572 0.0664993 0)
(0.00168871 0.0562481 0)
(-0.0067075 0.0607978 0)
(-0.00174726 0.132736 0)
(0.00534684 0.057504 0)
(-0.00533984 0.0561487 0)
(-0.00633798 0.0645395 0)
(-0.0102669 0.0992055 0)
(-0.0102315 0.0585175 0)
(-0.0157128 0.0848868 0)
(-0.00832421 0.120983 0)
(-0.00652518 0.121207 0)
(-0.000828303 0.117079 0)
(-0.0021196 0.115917 0)
(0.000496422 0.113478 0)
(-0.00065718 0.112468 0)
(0.00102114 0.111006 0)
(8.96793e-05 0.110126 0)
(0.0011885 0.109351 0)
(0.000278598 0.108729 0)
(0.00111531 0.103108 0)
(-0.00335152 0.108928 0)
(0.00306553 0.0657563 0)
(-0.0107145 0.0674285 0)
(0.00176992 0.140556 0)
(0.00561876 0.0686968 0)
(0.00170741 0.0619337 0)
(-0.00569042 0.0647065 0)
(-0.00183436 0.128744 0)
(0.00453162 0.061245 0)
(-0.00488556 0.0613359 0)
(-0.00590812 0.0682252 0)
(-0.00911559 0.101335 0)
(-0.00912507 0.0624279 0)
(-0.0140075 0.0851452 0)
(-0.00805406 0.118929 0)
(-0.00705287 0.119561 0)
(-0.00246769 0.116549 0)
(-0.00312552 0.116128 0)
(-0.000494214 0.113861 0)
(-0.00123058 0.113143 0)
(0.000441566 0.111718 0)
(-0.000256344 0.111021 0)
(0.000838111 0.110268 0)
(0.000152453 0.109749 0)
(0.00100407 0.10475 0)
(-0.00285928 0.110081 0)
(0.00262871 0.0696903 0)
(-0.00932885 0.0699921 0)
(0.00152613 0.134518 0)
(0.00494824 0.0709042 0)
(0.0015098 0.0668222 0)
(-0.00484516 0.0684338 0)
(-0.0019099 0.125272 0)
(0.0034422 0.0647267 0)
(-0.00468298 0.0658559 0)
(-0.0057531 0.0715001 0)
(-0.00823989 0.103022 0)
(-0.0083656 0.0659668 0)
(-0.0126792 0.0855348 0)
(-0.00790626 0.117386 0)
(-0.00742545 0.118291 0)
(-0.00365039 0.11595 0)
(-0.00385395 0.115997 0)
(-0.00135153 0.11399 0)
(-0.00174448 0.113576 0)
(-0.000125548 0.112246 0)
(-0.000581018 0.111725 0)
(0.000500025 0.111015 0)
(2.86402e-05 0.110579 0)
(0.00087827 0.106192 0)
(-0.00221958 0.110927 0)
(0.00244726 0.0730714 0)
(-0.00766385 0.0724528 0)
(0.00117197 0.129382 0)
(0.00405976 0.0729436 0)
(0.00111279 0.0708372 0)
(-0.00424509 0.0717566 0)
(-0.0020004 0.122272 0)
(0.0022986 0.0678874 0)
(-0.00460939 0.0696725 0)
(-0.00573808 0.0743478 0)
(-0.00760444 0.104291 0)
(-0.0078784 0.0691628 0)
(-0.0116475 0.0859976 0)
(-0.00782551 0.116145 0)
(-0.00753217 0.117238 0)
(-0.00439491 0.115334 0)
(-0.00429583 0.115671 0)
(-0.00202193 0.11396 0)
(-0.00215304 0.113788 0)
(-0.000628254 0.112604 0)
(-0.000872816 0.112238 0)
(0.000181792 0.111591 0)
(-9.72717e-05 0.111236 0)
(0.000739635 0.107406 0)
(-0.00155177 0.111391 0)
(0.00234335 0.075918 0)
(-0.00601689 0.074811 0)
(0.000824939 0.12512 0)
(0.00309669 0.0748766 0)
(0.000574045 0.0741206 0)
(-0.00390232 0.0747311 0)
(-0.00212287 0.11967 0)
(0.00127341 0.0708195 0)
(-0.00459048 0.0729423 0)
(-0.00578773 0.0769124 0)
(-0.0071411 0.105273 0)
(-0.00757478 0.0721199 0)
(-0.0108228 0.0865887 0)
(-0.00778321 0.11518 0)
(-0.0074689 0.11637 0)
(-0.00483863 0.114776 0)
(-0.00454921 0.115299 0)
(-0.00254358 0.113862 0)
(-0.00247474 0.113866 0)
(-0.00106757 0.112833 0)
(-0.00112107 0.112596 0)
(-0.000107623 0.112018 0)
(-0.000220134 0.111728 0)
(0.000598259 0.108417 0)
(-0.000955935 0.111479 0)
(0.00218553 0.0782397 0)
(-0.00458677 0.0769548 0)
(0.00049217 0.121653 0)
(0.00223087 0.0766313 0)
(1.21864e-05 0.0767308 0)
(-0.00372479 0.0772877 0)
(-0.00225639 0.117342 0)
(0.000420292 0.0734654 0)
(-0.00454872 0.0756819 0)
(-0.00581305 0.0791761 0)
(-0.00679484 0.105966 0)
(-0.00735104 0.0747855 0)
(-0.0100957 0.0872469 0)
(-0.00772489 0.114402 0)
(-0.007292 0.115611 0)
(-0.00509478 0.114274 0)
(-0.00467631 0.114872 0)
(-0.00294308 0.113689 0)
(-0.00271076 0.113812 0)
(-0.00142516 0.112937 0)
(-0.00132293 0.112807 0)
(-0.000365508 0.112293 0)
(-0.000332084 0.112071 0)
(0.000458082 0.109205 0)
(-0.000476959 0.1113 0)
(0.00191682 0.0801798 0)
(-0.00346181 0.0789168 0)
(0.00018975 0.118839 0)
(0.00155022 0.0782788 0)
(-0.000481915 0.0788859 0)
(-0.00361952 0.0795185 0)
(-0.00238215 0.115319 0)
(-0.000286896 0.0758885 0)
(-0.00448613 0.0780166 0)
(-0.00581871 0.0812064 0)
(-0.00651441 0.106477 0)
(-0.00715856 0.0772127 0)
(-0.00944246 0.0879443 0)
(-0.0076623 0.113764 0)
(-0.00708622 0.114946 0)
(-0.00525362 0.113827 0)
(-0.00473599 0.114454 0)
(-0.00324022 0.113481 0)
(-0.00288343 0.113676 0)
(-0.00172402 0.112949 0)
(-0.00148934 0.112884 0)
(-0.000595245 0.112442 0)
(-0.000434538 0.112256 0)
(0.000322031 0.109786 0)
(-0.000133989 0.110948 0)
(0.00156401 0.0818158 0)
(-0.00262596 0.0807046 0)
(-8.3757e-05 0.116562 0)
(0.00104617 0.0798417 0)
(-0.000891655 0.0806766 0)
(-0.00352625 0.0814866 0)
(-0.00251337 0.113555 0)
(-0.00089738 0.0781136 0)
(-0.00440088 0.0800039 0)
(-0.00578733 0.0830581 0)
(-0.00626309 0.106794 0)
(-0.00696914 0.0793922 0)
(-0.00883011 0.0886593 0)
(-0.00755485 0.113205 0)
(-0.00685876 0.114305 0)
(-0.00535115 0.113403 0)
(-0.0047538 0.11401 0)
(-0.00346771 0.113223 0)
(-0.00300488 0.113441 0)
(-0.00196712 0.112843 0)
(-0.0016259 0.112832 0)
(-0.000793103 0.112466 0)
(-0.000521949 0.112321 0)
(0.000196424 0.110161 0)
(0.000101818 0.110526 0)
(0.00118761 0.0832412 0)
(-0.00201279 0.0823465 0)
(-0.000322914 0.114717 0)
(0.000644384 0.0813694 0)
(-0.00120063 0.0822067 0)
(-0.00341439 0.0832724 0)
(-0.00260351 0.112083 0)
(-0.00141334 0.0801689 0)
(-0.00430226 0.0817337 0)
(-0.00570854 0.0847551 0)
(-0.00604318 0.106959 0)
(-0.006753 0.0813503 0)
(-0.00826762 0.0893915 0)
(-0.00742869 0.112699 0)
(-0.00664834 0.113694 0)
(-0.00540619 0.112993 0)
(-0.00474476 0.113542 0)
(-0.00363448 0.112925 0)
(-0.0030948 0.113145 0)
(-0.00215498 0.112671 0)
(-0.00173031 0.112687 0)
(-0.000956809 0.112385 0)
(-0.000595704 0.112277 0)
(8.50338e-05 0.110369 0)
(0.000257414 0.11005 0)
(0.000851432 0.0844813 0)
(-0.00155377 0.0838085 0)
(-0.000504003 0.113211 0)
(0.000316052 0.0827772 0)
(-0.00143181 0.083461 0)
(-0.00328268 0.084867 0)
(-0.00270489 0.110823 0)
(-0.00187088 0.0820387 0)
(-0.00421496 0.0831262 0)
(-0.00561565 0.0863094 0)
(-0.00584365 0.106967 0)
(-0.00654545 0.0830747 0)
(-0.00778093 0.0901087 0)
(-0.00728012 0.112232 0)
(-0.00643894 0.113067 0)
(-0.0054204 0.112566 0)
(-0.00471747 0.113041 0)
(-0.00374554 0.112569 0)
(-0.00315799 0.112782 0)
(-0.00230771 0.112407 0)
(-0.0018121 0.112442 0)
(-0.00108681 0.112208 0)
(-0.000655965 0.112116 0)
(-1.3462e-05 0.110414 0)
(0.000338511 0.109581 0)
(0.000546242 0.0855468 0)
(-0.0012125 0.0851302 0)
(-0.000631692 0.111971 0)
(-7.31607e-06 0.0841805 0)
(-0.00157072 0.084499 0)
(-0.0031268 0.0863653 0)
(-0.00272534 0.109748 0)
(-0.00228492 0.0837658 0)
(-0.00415387 0.0842929 0)
(-0.00544842 0.0877535 0)
(-0.00569861 0.106867 0)
(-0.0063106 0.0846129 0)
(-0.00734212 0.0908092 0)
(-0.00710571 0.111776 0)
(-0.00626415 0.11244 0)
(-0.00540243 0.112109 0)
(-0.00468078 0.112497 0)
(-0.00381944 0.112177 0)
(-0.0031914 0.112353 0)
(-0.00241508 0.112086 0)
(-0.00186923 0.112123 0)
(-0.00119226 0.111945 0)
(-0.00070549 0.111869 0)
(-9.54495e-05 0.110324 0)
(0.000356915 0.109086 0)
(0.000355242 0.0865261 0)
(-0.000962991 0.0863667 0)
(-0.000659355 0.110956 0)
(-0.000341466 0.0854932 0)
(-0.00165747 0.0854702 0)
(-0.00291788 0.0876783 0)
(-0.00276319 0.108919 0)
(-0.00265588 0.0852353 0)
(-0.00413186 0.0854639 0)
(-0.00525235 0.089009 0)
(-0.00559478 0.106648 0)
(-0.00608173 0.086014 0)
(-0.00700921 0.0914915 0)
(-0.0069251 0.111324 0)
(-0.00611177 0.111809 0)
(-0.00535063 0.11162 0)
(-0.00462892 0.111931 0)
(-0.0038529 0.11172 0)
(-0.00320362 0.111875 0)
(-0.00249217 0.11169 0)
(-0.00191433 0.111727 0)
(-0.00127069 0.111607 0)
(-0.000743625 0.111534 0)
(-0.00016273 0.110087 0)
(0.000327719 0.108526 0)
(0.0002582 0.0874973 0)
(-0.000754815 0.0874765 0)
(-0.00069048 0.110073 0)
(-0.000617589 0.0866189 0)
(-0.00170829 0.0865219 0)
(-0.00273992 0.0887837 0)
(-0.0027937 0.108194 0)
(-0.00290072 0.0865048 0)
(-0.00409421 0.0866662 0)
(-0.0051206 0.0900963 0)
(-0.00546106 0.10643 0)
(-0.00585175 0.0872735 0)
(-0.00676284 0.0922048 0)
(-0.0067316 0.110819 0)
(-0.00598759 0.111189 0)
(-0.00528703 0.111118 0)
(-0.00457394 0.111338 0)
(-0.0038541 0.111229 0)
(-0.00320256 0.111336 0)
(-0.00253563 0.111233 0)
(-0.00194181 0.111272 0)
(-0.00132921 0.111179 0)
(-0.000773629 0.111129 0)
(-0.000215875 0.109765 0)
(0.000312722 0.107955 0)
(0.000222004 0.0883376 0)
(-0.000657569 0.0883451 0)
(-0.000709355 0.10928 0)
(-0.000753358 0.0875562 0)
(-0.00173701 0.0874707 0)
(-0.00267482 0.0896765 0)
(-0.00281088 0.107581 0)
(-0.00298726 0.0875251 0)
(-0.00407298 0.0876793 0)
(-0.00502817 0.0910083 0)
(-0.00532876 0.106173 0)
(-0.00567433 0.0882723 0)
(-0.00656849 0.0928831 0)
(-0.00653856 0.110296 0)
(-0.00586606 0.110562 0)
(-0.00519946 0.110577 0)
(-0.0045166 0.110719 0)
(-0.00384234 0.110691 0)
(-0.00319534 0.110775 0)
(-0.00254961 0.110721 0)
(-0.00194839 0.110744 0)
(-0.00136193 0.110709 0)
(-0.000792974 0.110666 0)
(-0.00024885 0.109344 0)
(0.000312532 0.107342 0)
(0.000225207 0.089304 0)
(-0.000617374 0.0893119 0)
(-0.000715797 0.108643 0)
(-0.000812396 0.0885885 0)
(-0.00175123 0.0885197 0)
(-0.00263736 0.0906354 0)
(-0.00280373 0.107137 0)
(-0.00300333 0.0886181 0)
(-0.00404322 0.0887938 0)
(-0.00494764 0.09195 0)
(-0.00520916 0.105891 0)
(-0.00551807 0.0893613 0)
(-0.00640683 0.0936777 0)
(-0.00639854 0.109724 0)
(-0.00575948 0.109919 0)
(-0.00511651 0.109997 0)
(-0.00445689 0.110102 0)
(-0.0038055 0.110134 0)
(-0.00316621 0.110174 0)
(-0.00255061 0.110189 0)
(-0.0019516 0.110198 0)
(-0.00137097 0.110201 0)
(-0.00080021 0.110165 0)
(-0.000261318 0.108878 0)
(0.000317017 0.106689 0)
(0.000238292 0.0900801 0)
(-0.000584506 0.090063 0)
(-0.0007076 0.107977 0)
(-0.000812603 0.0894186 0)
(-0.00174482 0.0893723 0)
(-0.002612 0.0913863 0)
(-0.00278191 0.106625 0)
(-0.0029841 0.089501 0)
(-0.00399171 0.089698 0)
(-0.00487791 0.0927197 0)
(-0.0051079 0.105526 0)
(-0.00539748 0.0902391 0)
(-0.00627874 0.094361 0)
(-0.00627082 0.109123 0)
(-0.00564959 0.10929 0)
(-0.00501885 0.109377 0)
(-0.00438303 0.109469 0)
(-0.00374988 0.109544 0)
(-0.00313597 0.109604 0)
(-0.00253028 0.109633 0)
(-0.0019407 0.109656 0)
(-0.00137137 0.109662 0)
(-0.000801656 0.109633 0)
(-0.000265345 0.108362 0)
(0.000339246 0.106022 0)
(0.000272408 0.0910586 0)
(-0.000564891 0.0910123 0)
(-0.000684683 0.107354 0)
(-0.000793579 0.090434 0)
(-0.00172606 0.0903869 0)
(-0.00258971 0.0923059 0)
(-0.00274124 0.106143 0)
(-0.00292668 0.090575 0)
(-0.00393538 0.0907744 0)
(-0.00481056 0.0936144 0)
(-0.00499906 0.105147 0)
(-0.00526024 0.091326 0)
(-0.00617449 0.095173 0)
(-0.00618345 0.1085 0)
(-0.00555469 0.108649 0)
(-0.00492759 0.108745 0)
(-0.00429244 0.108852 0)
(-0.00367868 0.108932 0)
(-0.00308089 0.109004 0)
(-0.0024919 0.109067 0)
(-0.00191797 0.109102 0)
(-0.00135925 0.109112 0)
(-0.000797222 0.109097 0)
(-0.000265835 0.107836 0)
(0.000359291 0.105284 0)
(0.000298668 0.0918396 0)
(-0.000539408 0.0917739 0)
(-0.000655261 0.106615 0)
(-0.000758849 0.091276 0)
(-0.00169196 0.0912482 0)
(-0.00255503 0.093022 0)
(-0.00268195 0.105537 0)
(-0.00285674 0.0914539 0)
(-0.00386358 0.0916691 0)
(-0.00472905 0.0943475 0)
(-0.00490249 0.104713 0)
(-0.00516137 0.0922329 0)
(-0.0060799 0.0958502 0)
(-0.00607832 0.107844 0)
(-0.00544997 0.108021 0)
(-0.00482536 0.108128 0)
(-0.00419974 0.108234 0)
(-0.00359511 0.108332 0)
(-0.00300483 0.108408 0)
(-0.00243783 0.108475 0)