/*--------------------------------*- C++ -*----------------------------------*\
  =========                 |
  \\      /  F ield         | OpenFOAM: The Open Source CFD Toolbox
   \\    /   O peration     | Website:  https://openfoam.org
    \\  /    A nd           | Version:  dev
     \\/     M anipulation  |
\*---------------------------------------------------------------------------*/
FoamFile
{
    version     2.0;
    format      ascii;
    class       volVectorField;
    location    "1";
    object      U.water;
}
// * * * * * * * * * * * * * * * * * * * * * * * * * * * * * * * * * * * * * //

dimensions      [0 1 -1 0 0 0 0];

internalField   nonuniform List<vector> 
1875
(
(0.000537959 -0.0213253 0)
(-0.0100554 -0.036277 0)
(0.00786099 -0.0327318 0)
(-0.00391896 -0.0360377 0)
(-0.0048971 -0.0330319 0)
(-0.000622809 -0.0319466 0)
(0.0188794 -0.0292686 0)
(0.0141364 -0.0348516 0)
(0.0179656 -0.0383531 0)
(0.0204525 -0.0362168 0)
(0.0329674 -0.0323795 0)
(0.0410166 -0.0350159 0)
(0.0467557 -0.0410913 0)
(0.0605062 -0.038373 0)
(0.0640254 -0.0403272 0)
(0.0676086 -0.0320971 0)
(0.0606038 -0.030288 0)
(0.0659652 -0.0301978 0)
(0.0555378 -0.0309845 0)
(0.0517412 -0.0320217 0)
(0.0396441 -0.0310638 0)
(0.0351942 -0.0268492 0)
(0.0227173 -0.0265809 0)
(0.0192724 -0.0218902 0)
(0.00488472 -0.00705171 0)
(0.0167832 0.0246236 0)
(-0.0259805 0.0214027 0)
(0.0143891 0.00797768 0)
(-0.0110552 0.0394997 0)
(-0.00283569 0.0110891 0)
(0.00513857 -0.0137786 0)
(0.0444454 -0.00888123 0)
(0.0504474 0.0276414 0)
(0.0428221 0.0191376 0)
(0.051062 -0.00512786 0)
(0.0783274 -0.0212794 0)
(0.115873 -0.00176199 0)
(0.12578 0.000479633 0)
(0.136358 0.00204289 0)
(0.145701 0.0164352 0)
(0.134369 0.0235875 0)
(0.100583 0.0246149 0)
(0.0976572 0.024617 0)
(0.0817816 0.0280892 0)
(0.0721038 0.0308984 0)
(0.0501909 0.0317166 0)
(0.0405145 0.0314714 0)
(0.021641 0.0318114 0)
(0.0111208 0.0303347 0)
(-0.00280389 0.0216491 0)
(0.00885201 0.00153538 0)
(-0.0329401 -0.0104755 0)
(-0.00688698 -0.0325349 0)
(-0.0179178 -0.00534646 0)
(-0.00886881 -0.0349792 0)
(0.00143139 -0.0611069 0)
(0.0373012 -0.0589467 0)
(0.0540136 -0.0169477 0)
(0.0420326 -0.0238564 0)
(0.0491168 -0.0465714 0)
(0.0789432 -0.0728214 0)
(0.113615 -0.059044 0)
(0.140157 -0.0425299 0)
(0.1483 -0.0388387 0)
(0.163053 -0.0241617 0)
(0.152349 0.00865116 0)
(0.107049 0.0137667 0)
(0.0924696 0.00258799 0)
(0.0763736 0.00896939 0)
(0.0707232 0.0138473 0)
(0.0564481 0.0140028 0)
(0.0499155 0.0146154 0)
(0.032126 0.0158191 0)
(0.0233378 0.016246 0)
(0.00369851 0.0144736 0)
(0.0114652 0.038415 0)
(-0.0258925 0.0290034 0)
(-0.0120622 -0.0096343 0)
(-0.0117346 0.0361354 0)
(-0.0147106 -0.0168156 0)
(-0.0112956 -0.0593694 0)
(0.0291478 -0.0604096 0)
(0.0440375 0.017887 0)
(0.048308 0.0183759 0)
(0.0425235 -0.0358868 0)
(0.0823476 -0.0794525 0)
(0.110786 -0.0592414 0)
(0.13842 -0.0321677 0)
(0.149925 -0.0187795 0)
(0.156506 0.0124817 0)
(0.151836 0.0551981 0)
(0.11764 0.064148 0)
(0.0992596 0.0495249 0)
(0.0799901 0.0480892 0)
(0.0721742 0.0499602 0)
(0.0555348 0.0500354 0)
(0.04807 0.0515796 0)
(0.0294287 0.0526565 0)
(0.0210937 0.0528018 0)
(0.00211274 0.0433813 0)
(0.00719306 0.0192232 0)
(-0.0173343 -0.000517455 0)
(-0.0179245 -0.0406228 0)
(-0.0139596 0.00658549 0)
(-0.0142371 -0.0460108 0)
(-0.0210979 -0.101893 0)
(0.0220862 -0.108327 0)
(0.042653 -0.0283347 0)
(0.0578285 -0.021271 0)
(0.0387853 -0.0737719 0)
(0.0852189 -0.136699 0)
(0.114779 -0.112598 0)
(0.148685 -0.0775397 0)
(0.167545 -0.0479274 0)
(0.162576 -0.0159355 0)
(0.150732 0.055472 0)
(0.124952 0.0646023 0)
(0.103155 0.0469967 0)
(0.0828489 0.0435875 0)
(0.075803 0.0464881 0)
(0.058026 0.0458165 0)
(0.0509719 0.0487102 0)
(0.0318128 0.049835 0)
(0.0245536 0.0503947 0)
(0.00509981 0.0439924 0)
(0.00208099 0.0446921 0)
(-0.0194288 0.0340787 0)
(-0.018952 -0.0134125 0)
(-0.0264976 0.0312807 0)
(-0.0309519 -0.0278377 0)
(-0.0343354 -0.114743 0)
(0.0275562 -0.128296 0)
(0.0560818 -0.0213471 0)
(0.0764548 0.0164496 0)
(0.0396742 -0.0684903 0)
(0.0994476 -0.165061 0)
(0.126057 -0.133606 0)
(0.152622 -0.0909655 0)
(0.177731 -0.0338296 0)
(0.166117 0.0252586 0)
(0.151954 0.0869793 0)
(0.136051 0.0987074 0)
(0.108992 0.0884618 0)
(0.0845026 0.0758646 0)
(0.0759981 0.0760669 0)
(0.0565958 0.0751459 0)
(0.0492219 0.0783108 0)
(0.0298878 0.0787146 0)
(0.0236372 0.0790514 0)
(0.00501377 0.0726109 0)
(-0.00145835 0.0413431 0)
(-0.0165441 0.0200952 0)
(-0.0174877 -0.0298921 0)
(-0.0174821 0.0218653 0)
(-0.0360374 -0.0393544 0)
(-0.0338667 -0.168806 0)
(0.039035 -0.199344 0)
(0.0660246 -0.075322 0)
(0.0980628 -0.00341788 0)
(0.0559183 -0.0927795 0)
(0.117997 -0.22523 0)
(0.133109 -0.169777 0)
(0.143779 -0.130876 0)
(0.174274 -0.0589772 0)
(0.175677 -0.00202808 0)
(0.163548 0.0867243 0)
(0.148298 0.100442 0)
(0.125904 0.0981146 0)
(0.0934391 0.0824932 0)
(0.0818932 0.0820406 0)
(0.0561044 0.0793164 0)
(0.0486837 0.0818424 0)
(0.0274968 0.0810577 0)
(0.0232143 0.0809536 0)
(0.0050276 0.0778591 0)
(0.000815805 0.0618795 0)
(-0.0249287 0.0465971 0)
(-0.0142491 -0.0171392 0)
(0.0133035 0.0464634 0)
(-0.025908 -0.0102131 0)
(0.0116713 -0.188835 0)
(0.0546347 -0.239289 0)
(0.0840532 -0.0928734 0)
(0.100757 0.0172177 0)
(0.0829905 -0.0822837 0)
(0.14552 -0.242009 0)
(0.140811 -0.168561 0)
(0.12559 -0.13956 0)
(0.165014 -0.0739977 0)
(0.176533 0.0112599 0)
(0.172695 0.111566 0)
(0.15551 0.127502 0)
(0.134337 0.133073 0)
(0.0970965 0.11643 0)
(0.0836603 0.113497 0)
(0.0553988 0.108309 0)
(0.0475991 0.107684 0)
(0.0258386 0.104633 0)
(0.0231815 0.102288 0)
(0.00537554 0.101355 0)
(0.00255492 0.0685811 0)
(-0.0290334 0.0396337 0)
(-0.000564552 -0.0693498 0)
(0.0640817 0.0334651 0)
(0.0309024 -0.0138981 0)
(0.0899436 -0.227734 0)
(0.10449 -0.267712 0)
(0.104387 -0.129737 0)
(0.10519 -0.00966157 0)
(0.120066 -0.124854 0)
(0.189886 -0.25426 0)
(0.150682 -0.154163 0)
(0.114388 -0.152442 0)
(0.17056 -0.113941 0)
(0.183705 -0.0106836 0)
(0.200157 0.113081 0)
(0.172455 0.138127 0)
(0.14545 0.15154 0)
(0.0983283 0.132406 0)
(0.0818855 0.125048 0)
(0.0505518 0.117043 0)
(0.0420814 0.114911 0)
(0.0185363 0.109105 0)
(0.0193108 0.105757 0)
(0.00333274 0.110798 0)
(0.0134267 0.0852451 0)
(-0.0310425 0.0529841 0)
(0.0361462 -0.126344 0)
(0.0767306 0.010606 0)
(0.0800182 -0.01388 0)
(0.139475 -0.225495 0)
(0.174703 -0.24875 0)
(0.132565 -0.107211 0)
(0.0952625 -0.00731078 0)
(0.161755 -0.143592 0)
(0.229431 -0.24032 0)
(0.167892 -0.0902224 0)
(0.125676 -0.153348 0)
(0.200568 -0.122882 0)
(0.200267 -0.0243045 0)
(0.223727 0.124227 0)
(0.178771 0.177421 0)
(0.150787 0.198373 0)
(0.0999854 0.173905 0)
(0.0761974 0.157355 0)
(0.0425279 0.145319 0)
(0.0342048 0.139239 0)
(0.0113948 0.127582 0)
(0.0144542 0.118399 0)
(0.00124643 0.123487 0)
(0.0183941 0.0864661 0)
(-0.0391138 0.0284601 0)
(0.0720936 -0.196483 0)
(0.0475193 -0.0214907 0)
(0.0550435 -0.0676163 0)
(0.165028 -0.277482 0)
(0.196628 -0.241285 0)
(0.123966 -0.060889 0)
(0.0359671 -0.0470866 0)
(0.188702 -0.239687 0)
(0.23869 -0.234994 0)
(0.162741 -0.0472388 0)
(0.120366 -0.17778 0)
(0.219381 -0.149367 0)
(0.202095 -0.0305549 0)
(0.221183 0.14239 0)
(0.168834 0.21057 0)
(0.137051 0.225074 0)
(0.0801179 0.200904 0)
(0.0564732 0.179461 0)
(0.0247664 0.157758 0)
(0.0194726 0.146383 0)
(-0.00175226 0.129258 0)
(0.00612171 0.116298 0)
(-0.00285462 0.121656 0)
(0.0131783 0.0995585 0)
(-0.060619 0.00461262 0)
(0.0856128 -0.220319 0)
(0.00178082 0.00798321 0)
(0.0206987 -0.118087 0)
(0.151663 -0.343444 0)
(0.13792 -0.199884 0)
(-0.0499928 0.0666807 0)
(0.0169561 -0.0810808 0)
(0.201976 -0.325093 0)
(0.174822 -0.221617 0)
(0.0752641 0.0420448 0)
(0.0996043 -0.234243 0)
(0.187481 -0.19246 0)
(0.122675 -0.0201417 0)
(0.151767 0.16703 0)
(0.0938892 0.260191 0)
(0.070774 0.28231 0)
(0.0266214 0.248337 0)
(0.0273733 0.2081 0)
(-0.00286347 0.17995 0)
(-0.00407356 0.164366 0)
(-0.0247607 0.139088 0)
(-0.0149825 0.113694 0)
(-0.0121461 0.109757 0)
(0.00247301 0.125666 0)
(-0.082736 -0.0465638 0)
(0.0676666 -0.228712 0)
(-0.0643898 0.0489243 0)
(0.00908703 -0.200289 0)
(0.0576565 -0.370144 0)
(-0.0455265 -0.0133337 0)
(-0.181223 0.0739924 0)
(0.0553877 -0.287347 0)
(0.097991 -0.366277 0)
(0.0226961 -0.104973 0)
(-0.042058 0.057044 0)
(0.0720711 -0.315403 0)
(0.0232236 -0.15702 0)
(-0.0864106 0.0770708 0)
(-0.0421371 0.218988 0)
(-0.0739266 0.297204 0)
(-0.0328744 0.290623 0)
(-0.0333177 0.240419 0)
(-0.0125931 0.206702 0)
(-0.0343578 0.187181 0)
(-0.0294693 0.165125 0)
(-0.0515975 0.13364 0)
(-0.0378786 0.0907721 0)
(-0.0236665 0.0787932 0)
(-0.0151052 0.167269 0)
(-0.0730528 -0.0659635 0)
(0.0199812 -0.189068 0)
(-0.0739155 0.0854633 0)
(-0.0132445 -0.245364 0)
(-0.00330747 -0.308236 0)
(-0.0705114 0.0541509 0)
(-0.108625 0.00406275 0)
(0.0119863 -0.370546 0)
(0.0158288 -0.312477 0)
(-0.0538521 -0.0658916 0)
(-0.0326696 0.0135379 0)
(0.0236236 -0.317168 0)
(-0.0830087 -0.0485136 0)
(-0.166376 0.116281 0)
(-0.13751 0.220691 0)
(-0.138977 0.265612 0)
(-0.0705563 0.252096 0)
(-0.0579496 0.223969 0)
(-0.0408536 0.206303 0)
(-0.0555459 0.191715 0)
(-0.0539904 0.169534 0)
(-0.0776796 0.132339 0)
(-0.0590148 0.0690649 0)
(-0.0359325 0.040609 0)
(-0.0245992 0.206413 0)
(-0.079422 -0.0604708 0)
(0.00523002 -0.189215 0)
(-0.0571249 0.098513 0)
(-0.051033 -0.272493 0)
(-0.0348263 -0.318689 0)
(-0.0266659 0.0744334 0)
(-0.0520275 -0.00826535 0)
(-0.0208986 -0.405819 0)
(-0.0159267 -0.300612 0)
(-0.0691963 -0.0727205 0)
(-0.00964226 -0.0263961 0)
(0.00772322 -0.278605 0)
(-0.0927022 0.0163772 0)
(-0.157613 0.141541 0)
(-0.149151 0.209538 0)
(-0.133273 0.235452 0)
(-0.083057 0.212033 0)
(-0.0735343 0.202967 0)
(-0.061001 0.195557 0)
(-0.0691452 0.186362 0)
(-0.0689272 0.170439 0)
(-0.0876314 0.123824 0)
(-0.0760796 0.0389946 0)
(-0.0548754 -0.0172573 0)
(-0.0366228 0.255155 0)
(-0.0924871 -0.0592973 0)
(-0.00243663 -0.198231 0)
(-0.0504459 0.148447 0)
(-0.0693094 -0.272882 0)
(-0.0595746 -0.343253 0)
(-0.00496589 0.0796808 0)
(-0.0142983 0.00861654 0)
(-0.0328873 -0.41113 0)
(-0.0257427 -0.272964 0)
(-0.0724499 -0.0787951 0)
(-0.0108734 -0.0688416 0)
(-0.000287676 -0.238447 0)
(-0.0840374 0.0911242 0)
(-0.133132 0.174794 0)
(-0.140446 0.201517 0)
(-0.114296 0.205667 0)
(-0.0899579 0.187436 0)
(-0.0810701 0.189039 0)
(-0.0713983 0.183861 0)
(-0.0692529 0.181315 0)
(-0.0687282 0.17386 0)
(-0.0844203 0.12641 0)
(-0.0911472 0.0241084 0)
(-0.0702481 -0.0895774 0)
(-0.035315 0.318763 0)
(-0.0923529 -0.070364 0)
(-0.0208425 -0.232294 0)
(-0.034156 0.171313 0)
(-0.0752272 -0.269915 0)
(-0.0756354 -0.3802 0)
(-0.018401 0.0386437 0)
(0.0173045 0.0251053 0)
(-0.0477849 -0.390354 0)
(-0.0276504 -0.265846 0)
(-0.0610652 -0.087187 0)
(-0.00967218 -0.0953775 0)
(-0.0068037 -0.209884 0)
(-0.0693453 0.136058 0)
(-0.104535 0.197155 0)
(-0.117146 0.193971 0)
(-0.104394 0.183319 0)
(-0.0967836 0.169679 0)
(-0.0865263 0.169797 0)
(-0.0727029 0.166077 0)
(-0.0596378 0.172898 0)
(-0.0558963 0.179888 0)
(-0.0591625 0.134839 0)
(-0.0919545 0.0169174 0)
(-0.0579563 -0.159853 0)
(0.00587202 0.38329 0)
(-0.0496204 -0.0641785 0)
(-0.0230842 -0.269947 0)
(-0.0126599 0.21687 0)
(-0.0485305 -0.233724 0)
(-0.0783891 -0.392467 0)
(-0.0421911 -0.000283469 0)
(0.0137036 0.0421493 0)
(-0.0392574 -0.364214 0)
(-0.0325426 -0.258189 0)
(-0.0498967 -0.0914613 0)
(-0.00578393 -0.115563 0)
(-0.00923836 -0.182451 0)
(-0.059816 0.179169 0)
(-0.0867616 0.224431 0)
(-0.103477 0.200018 0)
(-0.0989805 0.174817 0)
(-0.100452 0.161022 0)
(-0.0873644 0.155961 0)
(-0.0698076 0.15018 0)
(-0.044447 0.16146 0)
(-0.0395551 0.172007 0)
(0.00301483 0.162009 0)
(-0.0579572 0.0333963 0)
(-0.0160885 -0.203854 0)
(0.0353156 0.381368 0)
(0.00186159 -0.0301747 0)
(-0.0199066 -0.282659 0)
(-0.00806681 0.217827 0)
(-0.0239091 -0.204484 0)
(-0.067359 -0.381508 0)
(-0.0563678 -0.0293461 0)
(-0.0125139 0.0262075 0)
(-0.0476061 -0.344267 0)
(-0.0559601 -0.253251 0)
(-0.0485538 -0.103459 0)
(-0.00863642 -0.13179 0)
(-0.0196203 -0.157244 0)
(-0.0583156 0.206593 0)
(-0.0837162 0.244065 0)
(-0.0969741 0.205416 0)
(-0.095765 0.172327 0)
(-0.0989142 0.148195 0)
(-0.084332 0.138488 0)
(-0.0669768 0.125609 0)
(-0.0400924 0.142757 0)
(-0.0309588 0.135843 0)
(0.0251248 0.158703 0)
(-0.00326257 0.0543199 0)
(0.00942417 -0.218392 0)
(0.0417749 0.358685 0)
(0.0280132 -0.00190621 0)
(0.00851194 -0.269355 0)
(-0.00883204 0.22213 0)
(-0.0133382 -0.173324 0)
(-0.0664072 -0.361444 0)
(-0.0527965 -0.0393361 0)
(-0.0426029 0.0277823 0)
(-0.067253 -0.318488 0)
(-0.0721212 -0.251881 0)
(-0.0551243 -0.12094 0)
(-0.0124844 -0.144255 0)
(-0.0288097 -0.133745 0)
(-0.0611194 0.234407 0)
(-0.0878064 0.263737 0)
(-0.0984386 0.211867 0)
(-0.098391 0.173925 0)
(-0.0970761 0.140005 0)
(-0.0792237 0.1232 0)
(-0.0694672 0.106805 0)
(-0.0405743 0.121095 0)
(-0.0334653 0.10419 0)
(0.0154279 0.140828 0)
(0.0191745 0.0524373 0)
(0.0256211 -0.200942 0)
(0.0254854 0.320309 0)
(0.0429032 0.00426795 0)
(0.0250714 -0.246284 0)
(-0.00361036 0.229419 0)
(-0.00153716 -0.142917 0)
(-0.0640324 -0.344063 0)
(-0.0381901 -0.0456979 0)
(-0.0533317 0.0357863 0)
(-0.0825264 -0.308766 0)
(-0.0788085 -0.257194 0)
(-0.0652495 -0.145542 0)
(-0.0232738 -0.156847 0)
(-0.045477 -0.107713 0)
(-0.0709315 0.261614 0)
(-0.0932422 0.28114 0)
(-0.107506 0.216016 0)
(-0.105962 0.171191 0)
(-0.100898 0.125328 0)
(-0.077129 0.102639 0)
(-0.0699236 0.0837988 0)
(-0.0415726 0.0978644 0)
(-0.032877 0.0773916 0)
(0.000400686 0.107076 0)
(0.0223332 0.0420772 0)
(0.0282468 -0.179293 0)
(0.00342341 0.29333 0)
(0.0505087 -0.00389077 0)
(0.0386086 -0.217365 0)
(0.00474275 0.23639 0)
(0.012113 -0.104709 0)
(-0.0534694 -0.326647 0)
(-0.0165209 -0.0475044 0)
(-0.0513925 0.0657816 0)
(-0.0951746 -0.286787 0)
(-0.0833173 -0.260393 0)
(-0.0789858 -0.164685 0)
(-0.0459317 -0.162843 0)
(-0.0659603 -0.0815463 0)
(-0.0811349 0.284791 0)
(-0.0976561 0.299397 0)
(-0.116609 0.223804 0)
(-0.116186 0.167197 0)
(-0.108627 0.109875 0)
(-0.0785416 0.0848086 0)
(-0.0687984 0.061844 0)
(-0.0397892 0.0783108 0)
(-0.028307 0.0590458 0)
(-0.00640607 0.0826716 0)
(0.0207621 0.0250997 0)
(0.0304486 -0.153207 0)
(-0.00275977 0.268208 0)
(0.0579503 -0.0287685 0)
(0.0555305 -0.194605 0)
(0.0119268 0.244652 0)
(0.0230194 -0.0749828 0)
(-0.0369303 -0.313352 0)
(-0.00213509 -0.0481504 0)
(-0.0460132 0.109697 0)
(-0.10284 -0.270769 0)
(-0.0855564 -0.263044 0)
(-0.0906821 -0.174937 0)
(-0.0664884 -0.16652 0)
(-0.0824588 -0.0665549 0)
(-0.0860174 0.300415 0)
(-0.0968106 0.315464 0)
(-0.119325 0.234147 0)
(-0.122773 0.162086 0)
(-0.114782 0.0893611 0)
(-0.0794659 0.0617018 0)
(-0.0659824 0.0377949 0)
(-0.0352512 0.0555225 0)
(-0.0235329 0.041805 0)
(-0.00554193 0.0559813 0)
(0.0236108 0.00889538 0)
(0.032615 -0.127355 0)
(0.00743355 0.239737 0)
(0.0666337 -0.0568516 0)
(0.0727075 -0.166425 0)
(0.0155894 0.261208 0)
(0.0252524 -0.0484403 0)
(-0.021843 -0.296399 0)
(0.00304833 -0.0428018 0)
(-0.0373017 0.167983 0)
(-0.106851 -0.245178 0)
(-0.0890278 -0.261262 0)
(-0.0995355 -0.176851 0)
(-0.0840707 -0.165421 0)
(-0.0961242 -0.0581016 0)
(-0.085714 0.307327 0)
(-0.089572 0.331437 0)
(-0.113213 0.251179 0)
(-0.123557 0.163144 0)
(-0.112482 0.0733667 0)
(-0.0722136 0.0487399 0)
(-0.05859 0.0287627 0)
(-0.0288015 0.0440694 0)
(-0.0165454 0.0387186 0)
(0.00235599 0.0431934 0)
(0.0315507 0.00892899 0)
(0.0324391 -0.0916377 0)
(0.0260887 0.195146 0)
(0.0754113 -0.0868092 0)
(0.0884988 -0.139828 0)
(0.0202373 0.287738 0)
(0.0150235 -0.0329668 0)
(-0.0104683 -0.283576 0)
(-0.00266814 -0.0399926 0)
(-0.0248272 0.229613 0)
(-0.102789 -0.220824 0)
(-0.0886037 -0.258219 0)
(-0.104156 -0.172692 0)
(-0.0990468 -0.162296 0)
(-0.108881 -0.0619695 0)
(-0.0834569 0.303806 0)
(-0.0737657 0.343258 0)
(-0.0923633 0.275197 0)
(-0.106478 0.172532 0)
(-0.0903339 0.066694 0)
(-0.0487469 0.0451615 0)
(-0.0450095 0.0340722 0)
(-0.0197965 0.0495369 0)
(-0.00876424 0.0476179 0)
(0.0129868 0.0456191 0)
(0.0348217 0.0182341 0)
(0.0267767 -0.0536274 0)
(0.040938 0.140672 0)
(0.0847272 -0.112045 0)
(0.0973168 -0.110497 0)
(0.0239086 0.332597 0)
(-0.00179116 -0.0174018 0)
(-0.00669517 -0.269142 0)
(-0.0171193 -0.0387726 0)
(-0.0126406 0.284894 0)
(-0.0895628 -0.18895 0)
(-0.0868003 -0.248288 0)
(-0.101958 -0.160195 0)
(-0.110232 -0.151354 0)
(-0.119151 -0.0703882 0)
(-0.0844084 0.284075 0)
(-0.0508099 0.341846 0)
(-0.0651688 0.294863 0)
(-0.0492617 0.17943 0)
(-0.0451142 0.0620834 0)
(-0.0174569 0.0445892 0)
(-0.0239547 0.0431332 0)
(-0.00711887 0.0563658 0)
(-0.000687778 0.0537504 0)
(0.0176829 0.0499862 0)
(0.0274831 0.0318075 0)
(0.0179611 -0.0197772 0)
(0.0425403 0.0918269 0)
(0.0863901 -0.129503 0)
(0.0885503 -0.0808549 0)
(0.0163589 0.39413 0)
(-0.0146847 -0.00848619 0)
(-0.0104167 -0.257456 0)
(-0.0335999 -0.0460936 0)
(-0.00392495 0.31914 0)
(-0.0667459 -0.159954 0)
(-0.0805064 -0.235491 0)
(-0.0934451 -0.143546 0)
(-0.114125 -0.134484 0)
(-0.124329 -0.0791058 0)
(-0.090452 0.24926 0)
(-0.0313594 0.325265 0)
(-0.0444131 0.292157 0)
(0.0114498 0.174726 0)
(0.00470251 0.0604189 0)
(0.0102096 0.051396 0)
(-0.00249476 0.0515077 0)
(0.00577513 0.0610352 0)
(0.00594802 0.0570454 0)
(0.0172333 0.0537849 0)
(0.0169728 0.0420688 0)
(0.0107033 0.00138107 0)
(0.0268871 0.0520382 0)
(0.0753362 -0.137183 0)
(0.0527902 -0.0460792 0)
(0.000183787 0.45294 0)
(-0.0142712 -0.00228222 0)
(-0.015956 -0.239711 0)
(-0.0470217 -0.0580252 0)
(-0.000974361 0.329063 0)
(-0.0368452 -0.130816 0)
(-0.0713812 -0.21405 0)
(-0.0802535 -0.121782 0)
(-0.111274 -0.109185 0)
(-0.123799 -0.0790966 0)
(-0.0989976 0.212194 0)
(-0.0231699 0.295605 0)
(-0.0213741 0.266152 0)
(0.0519266 0.163499 0)
(0.0378119 0.070207 0)
(0.0319185 0.0644891 0)
(0.0146192 0.0612046 0)
(0.0170215 0.0664544 0)
(0.0112382 0.0610712 0)
(0.016596 0.0586285 0)
(0.00991313 0.0507138 0)
(0.00702577 0.0153418 0)
(0.00649657 0.0266021 0)
(0.0522571 -0.137379 0)
(0.00200713 -0.0164623 0)
(-0.00704785 0.477363 0)
(-0.00200745 -0.00378887 0)
(-0.0166904 -0.215545 0)
(-0.0543995 -0.0693952 0)
(-0.00176281 0.32262 0)
(-0.00545807 -0.107426 0)
(-0.0584441 -0.187515 0)
(-0.0634664 -0.0984776 0)
(-0.10163 -0.0804823 0)
(-0.115151 -0.0714852 0)
(-0.105042 0.178368 0)
(-0.0254973 0.262245 0)
(0.00325551 0.23777 0)
(0.0723085 0.150969 0)
(0.0500723 0.0874222 0)
(0.0437714 0.0805443 0)
(0.0236888 0.0725548 0)
(0.0239771 0.0725747 0)
(0.0141686 0.065808 0)
(0.0164341 0.0633635 0)
(0.00669856 0.0576409 0)
(0.00586332 0.0246654 0)
(-0.00987604 0.0165089 0)
(0.0264076 -0.125236 0)
(-0.0426155 0.00124238 0)
(-0.00393294 0.471165 0)
(0.0147702 -0.00186641 0)
(-0.0108735 -0.181534 0)
(-0.0542754 -0.0733877 0)
(-0.00439623 0.290217 0)
(0.0206862 -0.085366 0)
(-0.044444 -0.154459 0)
(-0.0458644 -0.073127 0)
(-0.0871279 -0.0493292 0)
(-0.0993716 -0.0554525 0)
(-0.100968 0.152842 0)
(-0.0282172 0.232249 0)
(0.0150838 0.213038 0)
(0.0718014 0.14593 0)
(0.0463691 0.108691 0)
(0.0448745 0.0964692 0)
(0.0255794 0.0853031 0)
(0.0265873 0.0804352 0)
(0.0149978 0.0729902 0)
(0.0162881 0.0699854 0)
(0.00567078 0.0652349 0)
(0.0058785 0.0334478 0)
(-0.0222234 0.0194691 0)
(0.00676057 -0.102927 0)
(-0.0715395 0.00468338 0)
(0.00453074 0.432102 0)
(0.0300372 0.000677809 0)
(-0.000410435 -0.142826 0)
(-0.0482176 -0.0672214 0)
(-0.00552908 0.259439 0)
(0.0379253 -0.0682344 0)
(-0.030749 -0.120194 0)
(-0.0299542 -0.0496781 0)
(-0.0700817 -0.0206824 0)
(-0.0792024 -0.0400225 0)
(-0.0852254 0.13635 0)
(-0.0256145 0.201777 0)
(0.0101407 0.188612 0)
(0.0532495 0.146091 0)
(0.0329986 0.124129 0)
(0.0383546 0.107806 0)
(0.0224347 0.0956918 0)
(0.0254294 0.0876277 0)
(0.0140199 0.0800786 0)
(0.0155419 0.0763406 0)
(0.00537907 0.0720397 0)
(0.00623116 0.0416185 0)
(-0.0297232 0.0350726 0)
(-0.00391836 -0.074441 0)
(-0.0855457 0.00378818 0)
(0.0108686 0.37293 0)
(0.041621 0.00670374 0)
(0.0104649 -0.10126 0)
(-0.0377674 -0.0507814 0)
(-0.00468038 0.235417 0)
(0.0446704 -0.0504524 0)
(-0.0207939 -0.0855365 0)
(-0.0189658 -0.0274863 0)
(-0.0546479 0.00440852 0)
(-0.0601873 -0.0269395 0)
(-0.068262 0.12483 0)
(-0.0218708 0.180049 0)
(-0.00185301 0.172176 0)
(0.030388 0.144618 0)
(0.01798 0.131477 0)
(0.0288777 0.114178 0)
(0.0170986 0.103503 0)
(0.0220945 0.0940453 0)
(0.0120492 0.087203 0)
(0.014243 0.0828933 0)
(0.00518456 0.0789692 0)
(0.00646301 0.050329 0)
(-0.0316356 0.0565232 0)
(-0.00707719 -0.0440443 0)
(-0.0866713 0.00542216 0)
(0.0116958 0.324712 0)
(0.0473544 0.0136285 0)
(0.0184435 -0.0619652 0)
(-0.0251595 -0.0306914 0)
(-0.00328686 0.212932 0)
(0.0418043 -0.0342454 0)
(-0.0154194 -0.0552134 0)
(-0.013411 -0.00895127 0)
(-0.0427848 0.0239625 0)
(-0.0459999 -0.0167095 0)
(-0.0557382 0.114058 0)
(-0.0194837 0.162891 0)
(-0.0121962 0.158667 0)
(0.0134991 0.139627 0)
(0.00662435 0.132456 0)
(0.0201347 0.116256 0)
(0.0116169 0.108321 0)
(0.0179863 0.0987609 0)
(0.00961282 0.0930051 0)
(0.0125674 0.0884374 0)
(0.00481554 0.0849727 0)
(0.00647401 0.0586987 0)
(-0.0289584 0.0782482 0)
(-0.004136 -0.0152687 0)
(-0.076812 0.0119194 0)
(0.0106781 0.278704 0)
(0.0446882 0.0222338 0)
(0.0213637 -0.0273421 0)
(-0.0152485 -0.0104213 0)
(-0.00214135 0.197036 0)
(0.0344287 -0.0195966 0)
(-0.0135461 -0.0292681 0)
(-0.011745 0.00697315 0)
(-0.0350067 0.0398586 0)
(-0.0371955 -0.0063727 0)
(-0.0487135 0.105885 0)
(-0.0189671 0.14945 0)
(-0.0182813 0.148262 0)
(0.00304568 0.134086 0)
(-0.000600049 0.130922 0)
(0.0131274 0.11681 0)
(0.00691815 0.111683 0)
(0.0139661 0.102631 0)
(0.00719748 0.0981896 0)
(0.0107126 0.0935875 0)
(0.00422326 0.0906783 0)
(0.00622914 0.0670943 0)
(-0.0236195 0.0945402 0)
(0.00302516 0.00777632 0)
(-0.0620584 0.0203047 0)
(0.00976515 0.240246 0)
(0.0356799 0.029317 0)
(0.0194937 -0.000917991 0)
(-0.0101144 0.00685414 0)
(-0.00177437 0.182619 0)
(0.0268656 -0.00726531 0)
(-0.0135375 -0.0083039 0)
(-0.0119853 0.0196842 0)
(-0.0299792 0.0522144 0)
(-0.0320316 0.00382001 0)
(-0.0445869 0.100184 0)
(-0.019202 0.139379 0)
(-0.0210185 0.140638 0)
(-0.00276878 0.128922 0)
(-0.00485538 0.128488 0)
(0.00778913 0.116508 0)
(0.00328641 0.113731 0)
(0.0104035 0.105466 0)
(0.00502838 0.102286 0)
(0.00888256 0.0978594 0)
(0.00350073 0.0955085 0)
(0.00581585 0.074806 0)
(-0.0171955 0.104399 0)
(0.00926428 0.0257796 0)
(-0.0463659 0.0285134 0)
(0.00896491 0.210712 0)
(0.0255695 0.0352208 0)
(0.0154742 0.0189778 0)
(-0.00894964 0.0215797 0)
(-0.00173903 0.169208 0)
(0.0208845 0.0044134 0)
(-0.0139132 0.0101932 0)
(-0.0128495 0.0306331 0)
(-0.0268711 0.0629488 0)
(-0.0290781 0.0145912 0)
(-0.0420094 0.0971539 0)
(-0.0197291 0.132194 0)
(-0.0218889 0.135515 0)
(-0.00608538 0.125068 0)
(-0.00735084 0.126526 0)
(0.00370562 0.116407 0)
(0.000558399 0.115329 0)
(0.00732129 0.107988 0)
(0.0031838 0.105884 0)
(0.00711709 0.101756 0)
(0.00276709 0.0999397 0)
(0.0052828 0.0820895 0)
(-0.0115114 0.108718 0)
(0.0128962 0.0391957 0)
(-0.0334822 0.0357616 0)
(0.00804648 0.186135 0)
(0.0182505 0.0390488 0)
(0.0109008 0.0337281 0)
(-0.00955869 0.0325124 0)
(-0.00226833 0.156436 0)
(0.0165039 0.0142374 0)
(-0.0141565 0.0260158 0)
(-0.0139216 0.0394407 0)
(-0.0245771 0.0715411 0)
(-0.0274237 0.0250528 0)
(-0.0395608 0.0954435 0)
(-0.0203913 0.1267 0)
(-0.0216478 0.131601 0)
(-0.0081805 0.122157 0)
(-0.00886417 0.124966 0)
(0.000624344 0.116325 0)
(-0.00146381 0.11646 0)
(0.00471674 0.110007 0)
(0.00166726 0.108795 0)
(0.0054661 0.105031 0)
(0.00205874 0.103671 0)
(0.00468446 0.0886174 0)
(-0.00711945 0.110226 0)
(0.0135283 0.0501293 0)
(-0.024329 0.0435772 0)
(0.00615322 0.16596 0)
(0.0138282 0.044178 0)
(0.00698788 0.0460911 0)
(-0.0105561 0.042726 0)
(-0.00263944 0.144916 0)
(0.0132218 0.0252378 0)
(-0.0136913 0.040768 0)
(-0.0150253 0.0484829 0)
(-0.0221773 0.0797386 0)
(-0.0260004 0.0355195 0)
(-0.0368583 0.0953946 0)
(-0.0208125 0.122708 0)
(-0.0209953 0.128906 0)
(-0.00969983 0.120307 0)
(-0.00979725 0.124027 0)
(-0.00176849 0.116567 0)
(-0.00292072 0.11754 0)
(0.00253489 0.111921 0)
(0.000446353 0.111391 0)
(0.00398265 0.108037 0)
(0.00141799 0.107005 0)
(0.00403332 0.0945417 0)
(-0.00381545 0.11 0)
(0.0125456 0.0587885 0)
(-0.0184682 0.0507809 0)
(0.00493374 0.150883 0)
(0.012015 0.0484805 0)
(0.00369375 0.0571947 0)
(-0.0113905 0.049781 0)
(-0.00350845 0.135985 0)
(0.0113287 0.0313886 0)
(-0.0130732 0.0545204 0)
(-0.0160158 0.0538154 0)
(-0.0207151 0.0859233 0)
(-0.0252588 0.0449335 0)
(-0.0337535 0.0957601 0)
(-0.021328 0.119725 0)
(-0.0199863 0.126574 0)
(-0.0110043 0.119054 0)
(-0.0102984 0.123236 0)
(-0.00365246 0.116874 0)
(-0.00400307 0.118358 0)
(0.000720453 0.113578 0)
(-0.000558092 0.113519 0)
(0.0026794 0.110616 0)
(0.00087411 0.109832 0)
(0.0033762 0.0997128 0)
(-0.00133523 0.109422 0)
(0.0097218 0.0676283 0)
(-0.0134281 0.0567931 0)
(0.00209909 0.139001 0)
(0.0109749 0.0520665 0)
(0.000653827 0.0674206 0)
(-0.0113121 0.0557807 0)
(-0.00670921 0.125942 0)
(0.00984466 0.0422482 0)
(-0.010241 0.0612123 0)
(-0.0188505 0.0622991 0)
(-0.0163872 0.0910922 0)
(-0.0239191 0.0536644 0)
(-0.0299214 0.0967017 0)
(-0.0213524 0.117531 0)
(-0.018773 0.124829 0)
(-0.01189 0.118337 0)
(-0.0105196 0.122805 0)
(-0.00506891 0.117363 0)
(-0.00479461 0.119247 0)
(-0.000759355 0.115142 0)
(-0.00132508 0.115469 0)
(0.00152378 0.112935 0)
(0.000431818 0.112384 0)
(0.00270618 0.1043 0)
(0.00208085 0.1091 0)
(0.00542463 0.0723646 0)
(-0.0116927 0.0645329 0)
(0.000600242 0.128537 0)
(0.0117117 0.0607906 0)
(-0.000778347 0.0702832 0)
(-0.0137495 0.0663747 0)
(-0.00458597 0.118845 0)
(0.00645685 0.0570541 0)
(-0.00907851 0.0631355 0)
(-0.0163292 0.0726306 0)
(-0.0166886 0.0935855 0)
(-0.0230387 0.0619377 0)
(-0.0258721 0.098082 0)
(-0.0212461 0.116384 0)
(-0.0172886 0.123224 0)
(-0.0125019 0.118118 0)
(-0.0104577 0.122229 0)
(-0.00619559 0.117919 0)
(-0.00530303 0.119768 0)
(-0.00198787 0.116455 0)
(-0.00190612 0.116915 0)
(0.000480585 0.114861 0)
(3.96925e-05 0.114389 0)
(0.00198756 0.108048 0)
(0.00202286 0.10869 0)
(0.00303259 0.0742616 0)
(-0.00818375 0.0726639 0)
(0.00012464 0.123028 0)
(0.00811331 0.0692843 0)
(-0.00152616 0.0700939 0)
(-0.00893116 0.0752332 0)
(-0.00514128 0.11269 0)
(-0.000549235 0.0663299 0)
(-0.00877164 0.0681883 0)
(-0.0142973 0.0786415 0)
(-0.0162864 0.0937207 0)
(-0.0197039 0.0709764 0)
(-0.0219708 0.0978355 0)
(-0.021033 0.116179 0)
(-0.0160039 0.121677 0)
(-0.0127366 0.118195 0)
(-0.0102908 0.121916 0)
(-0.00690295 0.118465 0)
(-0.00564906 0.120421 0)
(-0.00292772 0.11763 0)
(-0.00239842 0.118346 0)
(-0.000366071 0.116566 0)
(-0.000285672 0.1163 0)
(0.00131667 0.111211 0)
(0.00124841 0.107783 0)
(0.00134676 0.0777391 0)
(-0.00340437 0.0776668 0)
(-0.000299197 0.116979 0)
(0.00268036 0.0743326 0)
(-0.00212271 0.0738017 0)
(-0.00677215 0.0801827 0)
(-0.00488186 0.105471 0)
(-0.00343799 0.0729948 0)
(-0.00873436 0.0735809 0)
(-0.0128195 0.083787 0)
(-0.0150371 0.095381 0)
(-0.0174195 0.0777055 0)
(-0.0195669 0.0971236 0)
(-0.0187775 0.115977 0)
(-0.0147934 0.120177 0)
(-0.0123745 0.117964 0)
(-0.0100131 0.121332 0)
(-0.00732829 0.118598 0)
(-0.00581645 0.120568 0)
(-0.0036615 0.118255 0)
(-0.00270292 0.11902 0)
(-0.00111046 0.117562 0)
(-0.000529683 0.117363 0)
(0.000533412 0.113255 0)
(0.000909104 0.107286 0)
(0.000713046 0.0810907 0)
(-0.00204994 0.0815991 0)
(-0.000673839 0.111173 0)
(0.000498059 0.078392 0)
(-0.00258625 0.0776259 0)
(-0.00559975 0.0841457 0)
(-0.00510426 0.103396 0)
(-0.00505491 0.0772666 0)
(-0.00873916 0.0777851 0)
(-0.0117261 0.0872675 0)
(-0.0135447 0.097633 0)
(-0.0154737 0.0818118 0)
(-0.0173788 0.0978801 0)
(-0.0164562 0.115884 0)
(-0.013839 0.118471 0)
(-0.0117366 0.117926 0)
(-0.00958721 0.119876 0)
(-0.00754549 0.11872 0)
(-0.00585574 0.119743 0)
(-0.00415312 0.118616 0)
(-0.00288419 0.118859 0)
(-0.00165481 0.118083 0)
(-0.00077656 0.117702 0)
(2.81923e-05 0.114372 0)
(0.000595921 0.106849 0)
(0.000323279 0.0831233 0)
(-0.00144209 0.0836573 0)
(-0.00102673 0.109285 0)
(-0.000775382 0.080733 0)
(-0.00292937 0.0802574 0)
(-0.0049924 0.0863075 0)
(-0.00530058 0.102925 0)
(-0.00589321 0.0799857 0)
(-0.00862382 0.0807442 0)
(-0.0108433 0.0895815 0)
(-0.012365 0.0992257 0)
(-0.0138292 0.0843789 0)
(-0.015246 0.0986048 0)
(-0.0146056 0.115496 0)
(-0.0127456 0.117156 0)
(-0.0110106 0.117729 0)
(-0.00919843 0.118602 0)
(-0.00747213 0.118642 0)
(-0.00585632 0.118856 0)
(-0.00439185 0.118627 0)
(-0.00315819 0.118474 0)
(-0.00197505 0.118219 0)
(-0.000993058 0.117853 0)
(-0.000243512 0.114839 0)
(0.000391483 0.106346 0)
(0.000122014 0.0846805 0)
(-0.00120077 0.0850979 0)
(-0.00127172 0.108353 0)
(-0.00143084 0.0825244 0)
(-0.00316182 0.0822427 0)
(-0.0047393 0.0879285 0)
(-0.00537076 0.102994 0)
(-0.00618786 0.0821491 0)
(-0.00835798 0.0830553 0)
(-0.010095 0.0913197 0)
(-0.0112869 0.100417 0)
(-0.0124218 0.0862779 0)
(-0.0135768 0.0990881 0)
(-0.0130645 0.11473 0)
(-0.0116586 0.116013 0)
(-0.010244 0.11676 0)
(-0.00875732 0.117395 0)
(-0.00724686 0.117691 0)
(-0.00585305 0.117893 0)
(-0.00449832 0.117876 0)
(-0.00329507 0.117821 0)
(-0.00220213 0.117681 0)
(-0.00116958 0.11745 0)
(-0.000366284 0.11459 0)
(0.000349933 0.105768 0)
(6.97543e-05 0.0859934 0)
(-0.00110192 0.0862734 0)
(-0.00138501 0.107776 0)
(-0.00174717 0.0839792 0)
(-0.00329907 0.0838634 0)
(-0.00468663 0.0892256 0)
(-0.00534302 0.103217 0)
(-0.0061764 0.0840114 0)
(-0.00806165 0.084934 0)
(-0.00954822 0.0926452 0)
(-0.0104046 0.101162 0)
(-0.011305 0.0878193 0)
(-0.0124062 0.0994052 0)
(-0.0119161 0.113794 0)
(-0.010783 0.114813 0)
(-0.00958342 0.115499 0)
(-0.00825191 0.116145 0)
(-0.00697886 0.116486 0)
(-0.00570065 0.116738 0)
(-0.00446619 0.11683 0)
(-0.00333001 0.116833 0)
(-0.00228758 0.116791 0)
(-0.00129077 0.116589 0)
(-0.000431001 0.113846 0)
(0.000254719 0.105125 0)
(-3.39803e-05 0.0870611 0)
(-0.00107206 0.087326 0)
(-0.00147818 0.107223 0)
(-0.00192203 0.0853157 0)
(-0.00332267 0.0853517 0)
(-0.00460757 0.0902659 0)
(-0.00521997 0.103298 0)
(-0.00600162 0.0856238 0)
(-0.00768532 0.0865868 0)
(-0.00893734 0.0936757 0)
(-0.00969635 0.10169 0)
(-0.0104336 0.0891141 0)
(-0.0113528 0.0996173 0)
(-0.0109878 0.112876 0)
(-0.00999796 0.113723 0)
(-0.00898846 0.114366 0)
(-0.00781483 0.114883 0)
(-0.00661908 0.115291 0)
(-0.00546103 0.115542 0)
(-0.00437887 0.115716 0)
(-0.00332934 0.115802 0)
(-0.00232314 0.11579 0)
(-0.00133827 0.115665 0)
(-0.000441396 0.112985 0)