/*--------------------------------*- C++ -*----------------------------------*\
  =========                 |
  \\      /  F ield         | OpenFOAM: The Open Source CFD Toolbox
   \\    /   O peration     | Website:  https://openfoam.org
    \\  /    A nd           | Version:  dev
     \\/     M anipulation  |
\*---------------------------------------------------------------------------*/
FoamFile
{
    version     2.0;
    format      ascii;
    class       vectorField;
    location    "1/lagrangian/kinematicCloud";
    object      angularMomentum;
}
// * * * * * * * * * * * * * * * * * * * * * * * * * * * * * * * * * * * * * //


500
(
(2.50876e-30 -1.97684e-26 1.01331e-11)
(-2.30223e-27 1.03605e-26 5.90557e-12)
(1.90714e-27 9.60144e-27 2.02606e-12)
(1.85943e-27 -1.4895e-26 9.0118e-12)
(-2.27863e-27 2.58608e-26 1.02824e-11)
(4.2274e-28 5.76276e-27 1.25201e-11)
(-1.00092e-27 -2.3015e-26 9.65925e-12)
(-3.55691e-28 -7.89649e-27 1.85537e-11)
(1.58207e-26 7.34717e-26 1.14874e-11)
(-7.39699e-27 -2.29346e-26 4.77673e-12)
(2.52321e-26 6.54228e-26 4.34951e-12)
(2.57235e-26 -6.84719e-26 5.37562e-12)
(-8.62484e-27 2.01394e-26 -4.99844e-12)
(2.33587e-26 -1.37256e-26 7.55182e-12)
(3.13225e-26 7.68572e-27 -8.88383e-12)
(-1.97221e-27 -2.82117e-27 -6.99239e-13)
(6.32049e-27 9.95096e-27 7.19116e-12)
(2.61676e-27 1.23203e-27 1.81381e-11)
(-3.34175e-26 -1.58775e-26 3.93235e-11)
(0 0 0)
(0 0 0)
(0 0 0)
(0 0 0)
(0 0 0)
(0 0 0)
(0 0 0)
(0 0 0)
(0 0 0)
(0 0 0)
(0 0 0)
(0 0 0)
(0 0 0)
(0 0 0)
(0 0 0)
(0 0 0)
(0 0 0)
(0 0 0)
(0 0 0)
(0 0 0)
(0 0 0)
(0 0 0)
(0 0 0)
(0 0 0)
(0 0 0)
(0 0 0)
(0 0 0)
(0 0 0)
(0 0 0)
(0 0 0)
(0 0 0)
(-6.24045e-27 -7.29926e-27 -1.27452e-12)
(5.66406e-28 3.867e-27 8.8604e-13)
(1.18851e-27 2.17104e-27 3.16677e-12)
(-5.40372e-29 3.54034e-27 5.70045e-13)
(6.09215e-27 6.10112e-27 -6.09493e-13)
(-8.17913e-28 -3.87355e-27 -4.69051e-13)
(-4.73909e-27 1.47866e-26 -1.03075e-11)
(1.48202e-26 2.75009e-26 -4.70966e-12)
(1.18184e-26 1.7846e-26 -1.28421e-12)
(-7.51661e-28 -3.07226e-27 3.47168e-12)
(2.86491e-28 3.56369e-27 1.42195e-12)
(4.80832e-27 6.05028e-27 4.26044e-13)
(-1.20567e-27 -4.27461e-27 2.79674e-12)
(1.28972e-27 -1.21789e-26 -8.15759e-14)
(4.30602e-27 6.469e-28 1.62651e-11)
(4.72143e-27 -3.21557e-27 1.00609e-11)
(2.83992e-27 -2.65728e-26 -1.33507e-11)
(1.33261e-26 -4.06771e-27 -3.00099e-11)
(-1.32291e-27 -1.50717e-26 -2.15794e-11)
(0 0 0)
(0 0 0)
(0 0 0)
(0 0 0)
(0 0 0)
(0 0 0)
(0 0 0)
(0 0 0)
(0 0 0)
(0 0 0)
(0 0 0)
(0 0 0)
(0 0 0)
(0 0 0)
(0 0 0)
(0 0 0)
(0 0 0)
(0 0 0)
(0 0 0)
(0 0 0)
(0 0 0)
(0 0 0)
(0 0 0)
(0 0 0)
(0 0 0)
(0 0 0)
(0 0 0)
(0 0 0)
(0 0 0)
(0 0 0)
(0 0 0)
(-1.81522e-28 1.95994e-26 2.30183e-12)
(2.0091e-26 1.74807e-27 1.14667e-12)
(-1.37278e-28 -2.07871e-26 1.18596e-13)
(5.98155e-27 -8.03166e-29 2.01545e-12)
(1.44961e-26 5.14688e-28 -7.41205e-13)
(-1.01154e-26 -3.33775e-27 -3.22811e-12)
(-4.02891e-27 1.29533e-26 4.02643e-12)
(2.45362e-28 -9.75874e-28 1.02025e-13)
(-4.09295e-27 8.31887e-27 -7.08441e-12)
(5.23442e-27 1.91019e-26 -1.03308e-11)
(1.13985e-27 -5.3862e-27 -6.40385e-12)
(2.56375e-27 -8.28384e-27 -6.26144e-13)
(2.58777e-27 -2.10524e-26 1.34173e-12)
(-1.71704e-27 -1.22238e-27 -5.34546e-12)
(1.10936e-26 3.6702e-27 1.45884e-12)
(8.854e-28 -3.89477e-27 -1.98747e-12)
(-1.73113e-26 -1.19398e-26 -1.15209e-11)
(3.31074e-27 3.78606e-27 1.57317e-12)
(1.07552e-26 -1.38369e-26 -4.36313e-11)
(0 0 0)
(0 0 0)
(0 0 0)
(0 0 0)
(0 0 0)
(0 0 0)
(0 0 0)
(0 0 0)
(0 0 0)
(0 0 0)
(0 0 0)
(0 0 0)
(0 0 0)
(0 0 0)
(0 0 0)
(0 0 0)
(0 0 0)
(0 0 0)
(0 0 0)
(0 0 0)
(0 0 0)
(0 0 0)
(0 0 0)
(0 0 0)
(0 0 0)
(0 0 0)
(0 0 0)
(0 0 0)
(0 0 0)
(0 0 0)
(0 0 0)
(-2.71492e-28 3.84934e-26 -3.55233e-12)
(7.67834e-28 2.11516e-26 3.33441e-14)
(-1.98382e-27 2.17437e-29 -4.33232e-12)
(2.47774e-26 3.54406e-26 -1.26688e-12)
(9.27847e-28 -2.37037e-26 -8.74633e-14)
(8.43779e-29 2.54406e-26 -2.98548e-13)
(6.63981e-28 -2.43567e-26 3.68046e-13)
(-2.88711e-27 -2.05245e-25 4.07528e-12)
(1.87844e-27 2.5684e-26 1.09503e-12)
(-2.76142e-26 7.64764e-26 9.61742e-13)
(-3.59262e-30 -1.5238e-26 3.47758e-13)
(4.36355e-28 -3.32413e-26 -2.18439e-12)
(8.60373e-27 -3.96497e-27 5.55353e-12)
(3.117e-27 -3.42421e-26 2.51739e-12)
(8.95046e-27 -2.59553e-26 -1.32263e-11)
(2.8044e-27 3.22989e-27 2.63767e-12)
(-8.30938e-26 6.56259e-26 -2.49157e-12)
(3.78624e-26 -4.69881e-28 8.80333e-12)
(5.21955e-25 5.21598e-25 3.07272e-11)
(0 0 0)
(0 0 0)
(0 0 0)
(0 0 0)
(0 0 0)
(0 0 0)
(0 0 0)
(0 0 0)
(0 0 0)
(0 0 0)
(0 0 0)
(0 0 0)
(0 0 0)
(0 0 0)
(0 0 0)
(0 0 0)
(0 0 0)
(0 0 0)
(0 0 0)
(0 0 0)
(0 0 0)
(0 0 0)
(0 0 0)
(0 0 0)
(0 0 0)
(0 0 0)
(0 0 0)
(0 0 0)
(0 0 0)
(0 0 0)
(0 0 0)
(-1.04015e-27 -4.03914e-27 9.47673e-13)
(-5.39515e-27 6.06482e-27 -4.61317e-12)
(-1.88745e-27 6.17157e-26 3.6951e-12)
(-9.63228e-28 -6.2138e-26 2.89255e-12)
(-1.36828e-28 3.84718e-27 -6.41994e-13)
(3.80966e-27 -7.58267e-26 1.76754e-12)
(1.13244e-27 -3.71671e-26 2.69831e-13)
(1.78041e-28 9.10373e-27 -1.69332e-12)
(-3.82501e-27 3.30494e-26 -1.35849e-12)
(2.46548e-27 -1.50823e-26 4.43865e-12)
(5.05856e-27 -1.22927e-26 4.22635e-12)
(3.57997e-26 1.62658e-26 -1.44871e-12)
(5.48429e-26 6.24277e-27 -1.0333e-11)
(3.74906e-26 1.67214e-27 -3.02188e-12)
(-3.40419e-26 4.87194e-29 -1.01356e-12)
(-1.02148e-26 2.66761e-26 5.12391e-12)
(4.96175e-26 -1.63173e-26 -1.45015e-11)
(-1.04321e-26 -7.63552e-27 -2.6261e-12)
(-2.45478e-26 5.52948e-27 1.30845e-11)
(0 0 0)
(0 0 0)
(0 0 0)
(0 0 0)
(0 0 0)
(0 0 0)
(0 0 0)
(0 0 0)
(0 0 0)
(0 0 0)
(0 0 0)
(0 0 0)
(0 0 0)
(0 0 0)
(0 0 0)
(0 0 0)
(0 0 0)
(0 0 0)
(0 0 0)
(0 0 0)
(0 0 0)
(0 0 0)
(0 0 0)
(0 0 0)
(0 0 0)
(0 0 0)
(0 0 0)
(0 0 0)
(0 0 0)
(0 0 0)
(0 0 0)
(-2.25395e-27 -2.03654e-25 -4.36158e-12)
(1.67565e-27 1.34296e-25 1.18207e-12)
(-2.22509e-26 7.34276e-26 -1.63643e-12)
(5.16385e-27 4.96454e-26 5.7998e-13)
(-3.63185e-26 1.22556e-26 3.13334e-12)
(-4.08925e-27 -7.1663e-26 -2.07884e-12)
(-6.06611e-28 7.45327e-26 -4.00369e-12)
(1.29475e-27 1.61342e-26 -3.94747e-13)
(-7.55508e-28 8.69224e-26 -5.96821e-12)
(-5.93413e-27 -1.58385e-26 1.15583e-13)
(7.65368e-28 -4.16737e-26 1.26338e-12)
(3.99683e-27 1.22489e-28 -4.37749e-13)
(1.0736e-27 1.90001e-26 5.06364e-13)
(2.64963e-26 1.83873e-25 -3.07449e-12)
(-8.00795e-27 4.96443e-25 1.3216e-11)
(-1.4004e-26 2.88455e-26 -3.67289e-12)
(-6.04165e-26 -2.00064e-25 8.30556e-13)
(8.17137e-26 -3.01238e-25 -3.77775e-12)
(7.65105e-27 -6.66438e-27 -5.69765e-11)
(0 0 0)
(0 0 0)
(0 0 0)
(0 0 0)
(0 0 0)
(0 0 0)
(0 0 0)
(0 0 0)
(0 0 0)
(0 0 0)
(0 0 0)
(0 0 0)
(0 0 0)
(0 0 0)
(0 0 0)
(0 0 0)
(0 0 0)
(0 0 0)
(0 0 0)
(0 0 0)
(0 0 0)
(0 0 0)
(0 0 0)
(-1.36043e-27 4.99588e-40 1.52483e-25)
(5.74066e-28 -4.35009e-40 1.17987e-25)
(1.9345e-27 -9.34597e-40 -3.44959e-26)
(0 0 0)
(0 0 0)
(0 0 0)
(0 0 0)
(0 0 0)
(-5.17094e-28 3.1963e-25 5.97422e-13)
(6.35091e-28 3.14667e-25 -5.10144e-14)
(1.50041e-28 -9.56759e-26 9.15994e-13)
(1.25086e-28 1.27004e-25 7.69606e-13)
(6.46425e-28 -3.16711e-25 -1.82011e-13)
(-3.23928e-27 -1.26676e-25 -2.79525e-12)
(-4.0923e-27 -3.30352e-25 6.8096e-13)
(-3.64107e-27 2.05922e-25 -3.35792e-12)
(-7.05069e-28 3.01462e-25 -4.9861e-12)
(-2.30652e-27 2.56947e-25 -2.75941e-12)
(-3.42996e-29 2.8823e-25 -2.31324e-12)
(9.0607e-28 -2.60244e-25 6.06903e-14)
(1.55082e-26 -2.88248e-25 4.64858e-12)
(-1.0827e-25 -2.97712e-27 7.27811e-13)
(1.45858e-25 3.89147e-26 -5.59366e-12)
(1.42212e-25 1.42555e-26 6.84793e-13)
(-6.81119e-27 -3.04271e-25 -3.92225e-12)
(4.48107e-26 -1.34014e-26 -2.7994e-11)
(-5.17283e-25 1.43789e-25 -4.89735e-11)
(0 0 0)
(0 0 0)
(0 0 0)
(0 0 0)
(0 0 0)
(0 0 0)
(0 0 0)
(0 0 0)
(0 0 0)
(0 0 0)
(0 0 0)
(0 0 0)
(0 0 0)
(0 0 0)
(0 0 0)
(0 0 0)
(0 0 0)
(0 0 0)
(0 0 0)
(0 0 0)
(0 0 0)
(0 0 0)
(0 0 0)
(0 0 0)
(0 0 0)
(0 0 0)
(0 0 0)
(0 0 0)
(0 0 0)
(0 0 0)
(0 0 0)
(4.0212e-28 -2.85595e-26 2.01658e-12)
(-2.37748e-27 2.65602e-26 6.66694e-13)
(2.9069e-28 -3.15441e-25 -1.07225e-12)
(-2.24749e-27 3.1818e-25 -3.26423e-12)
(-1.18654e-26 4.26759e-26 3.01404e-12)
(3.11752e-27 -1.96898e-25 -3.19485e-12)
(-9.8949e-27 -7.35239e-26 -1.22655e-12)
(-4.2381e-27 5.83204e-26 4.43516e-12)
(8.65412e-28 2.07811e-25 3.05456e-12)
(1.86261e-26 -9.6967e-26 1.14746e-12)
(-7.92e-27 -4.8407e-26 4.4795e-12)
(5.88581e-27 4.1095e-26 -7.03975e-12)
(1.37867e-26 5.5498e-26 8.99056e-12)
(1.61983e-25 -6.73026e-26 1.89587e-12)
(2.53337e-26 1.67242e-28 -1.44189e-12)
(8.14551e-26 -7.93849e-26 -4.2784e-12)
(1.37328e-26 -3.5918e-26 -1.12014e-11)
(-8.37875e-28 3.82677e-27 -2.57706e-11)
(-5.44706e-26 -2.72665e-26 8.08649e-12)
(0 0 0)
(0 0 0)
(0 0 0)
(0 0 0)
(0 0 0)
(0 0 0)
(0 0 0)
(0 0 0)
(0 0 0)
(0 0 0)
(0 0 0)
(0 0 0)
(0 0 0)
(0 0 0)
(0 0 0)
(0 0 0)
(0 0 0)
(0 0 0)
(0 0 0)
(0 0 0)
(0 0 0)
(0 0 0)
(0 0 0)
(0 0 0)
(0 0 0)
(0 0 0)
(0 0 0)
(0 0 0)
(0 0 0)
(0 0 0)
(0 0 0)
(3.22487e-27 8.40008e-27 5.75169e-12)
(2.25808e-28 -2.38925e-26 -9.07615e-13)
(8.43567e-28 2.41022e-26 -9.79801e-13)
(-3.18068e-28 2.51986e-26 9.54082e-13)
(4.99858e-27 -9.0478e-28 2.36545e-12)
(5.65587e-28 -1.16695e-26 2.9995e-12)
(-5.87714e-27 -5.12103e-27 1.92434e-12)
(-3.37484e-27 -2.30134e-27 6.2309e-12)
(6.51219e-27 -7.22124e-27 4.50299e-12)
(-6.63669e-27 4.80304e-27 -3.85548e-12)
(7.7986e-29 -1.95689e-26 -2.9878e-12)
(-6.85961e-26 -7.73398e-27 -1.78783e-12)
(2.89566e-27 1.2327e-26 8.27367e-12)
(8.30544e-27 6.85834e-27 1.45402e-12)
(9.85429e-27 1.66244e-28 6.31499e-12)
(-2.97427e-28 3.44482e-27 -1.1734e-12)
(3.97241e-27 4.46179e-28 5.44472e-12)
(2.61863e-26 -1.21619e-26 -1.69344e-11)
(3.18857e-26 2.2187e-26 -5.56057e-12)
(0 0 0)
(0 0 0)
(0 0 0)
(0 0 0)
(0 0 0)
(0 0 0)
(0 0 0)
(0 0 0)
(0 0 0)
(0 0 0)
(0 0 0)
(0 0 0)
(0 0 0)
(0 0 0)
(0 0 0)
(0 0 0)
(0 0 0)
(0 0 0)
(0 0 0)
(0 0 0)
(0 0 0)
(0 0 0)
(0 0 0)
(0 0 0)
(0 0 0)
(0 0 0)
(0 0 0)
(0 0 0)
(0 0 0)
(0 0 0)
(0 0 0)
(1.11385e-27 -1.62427e-26 -5.39045e-12)
(6.75758e-30 -1.30131e-26 -7.34593e-12)
(-1.35352e-27 -1.83064e-26 -2.76754e-12)
(-3.78282e-27 1.54941e-26 -6.4896e-14)
(3.66766e-28 1.99837e-26 -7.78968e-12)
(4.57416e-28 -1.45624e-26 -1.56241e-12)
(-1.24837e-27 1.89885e-26 -9.97844e-12)
(-1.0594e-27 -6.32264e-27 -1.15747e-12)
(-3.43122e-27 8.35224e-27 -1.40117e-11)
(1.11372e-26 -1.24855e-27 -1.1142e-12)
(-2.39416e-26 -1.73141e-26 1.2524e-12)
(-8.10506e-27 1.98566e-26 -2.92092e-12)
(2.65083e-27 -3.59219e-27 4.73834e-12)
(-1.39543e-27 -8.86077e-27 -4.67531e-12)
(8.56388e-27 8.50031e-28 -7.46797e-12)
(9.27102e-27 -1.00157e-26 2.85647e-11)
(-7.50968e-28 1.20848e-26 -5.18576e-12)
(6.69814e-27 -8.41463e-27 -1.59343e-11)
(-1.79498e-26 2.20317e-26 -4.73357e-11)
(0 0 0)
(0 0 0)
(0 0 0)
(0 0 0)
(0 0 0)
(0 0 0)
(0 0 0)
(0 0 0)
(0 0 0)
(0 0 0)
(0 0 0)
(0 0 0)
(0 0 0)
(0 0 0)
(0 0 0)
(0 0 0)
(0 0 0)
(0 0 0)
(0 0 0)
(0 0 0)
(0 0 0)
(0 0 0)
(0 0 0)
(0 0 0)
(0 0 0)
(0 0 0)
(0 0 0)
(0 0 0)
(0 0 0)
(0 0 0)
(0 0 0)
)


// ************************************************************************* //
