/*--------------------------------*- C++ -*----------------------------------*\
  =========                 |
  \\      /  F ield         | OpenFOAM: The Open Source CFD Toolbox
   \\    /   O peration     | Website:  https://openfoam.org
    \\  /    A nd           | Version:  dev
     \\/     M anipulation  |
\*---------------------------------------------------------------------------*/
FoamFile
{
    version     2.0;
    format      ascii;
    class       labelField;
    location    "1/lagrangian/kinematicCloud";
    object      origProcId;
}
// * * * * * * * * * * * * * * * * * * * * * * * * * * * * * * * * * * * * * //

500{0}

// ************************************************************************* //
