/*--------------------------------*- C++ -*----------------------------------*\
  =========                 |
  \\      /  F ield         | OpenFOAM: The Open Source CFD Toolbox
   \\    /   O peration     | Website:  https://openfoam.org
    \\  /    A nd           | Version:  dev
     \\/     M anipulation  |
\*---------------------------------------------------------------------------*/
FoamFile
{
    version     2.0;
    format      ascii;
    class       Cloud<basicKinematicCollidingParcel>;
    location    "1/lagrangian/kinematicCloud";
    object      positions;
}
// * * * * * * * * * * * * * * * * * * * * * * * * * * * * * * * * * * * * * //

500
(
(0.0999877 0.450006 0.156341 0.293665) 0 3650 2
(0.100067 0.449967 0.00210701 0.44786) 0 3650 2
(0.100892 0.104914 0.344639 0.449554) 1 3651 1
(0.100456 0.210778 0.238994 0.449772) 1 3651 1
(0.10002 0.44999 0.264468 0.185522) 0 3650 2
(0.0999615 0.338843 0.111176 0.450019) 1 3651 1
(0.103391 0.448305 0.372495 0.0758097) 0 3650 2
(0.120207 0.439896 0.425138 0.0147583) 1 3651 2
(0.1049 0.256466 0.191084 0.44755) 0 3650 1
(0.100047 0.449976 0.330374 0.119603) 1 3651 2
(0.100969 0.0224189 0.427096 0.449515) 0 3650 1
(0.103364 0.137168 0.311149 0.448318) 0 3650 1
(0.101409 0.449295 0.218474 0.230821) 1 3651 2
(0.135743 0.354969 0.0771598 0.432129) 0 3650 1
(0.143493 0.428253 0.022432 0.405821) 1 3651 2
(0.195423 0.402289 0.0389008 0.363388) 1 2 2
(0.331119 0.33444 0.239245 0.0951954) 1 3651 2
(0.132538 0.433731 0.330412 0.103319) 1 0 2
(0.4898 0.2551 0.196735 0.0583643) 1 0 2
(0.55959 0.220205 0.136364 0.0838413) 1 3 1
(0.727273 0.136364 0.0736813 0.0626823) 26 49 2
(0.285704 0.357148 0.136364 0.220784) 26 52 1
(0.727273 0.0552037 0.136364 0.0811599) 51 98 1
(0.267604 0.366198 0.229834 0.136364) 76 101 1
(0.727273 0.0300963 0.136364 0.106267) 76 147 1
(0.727273 0.136364 0.133738 0.00262603) 101 196 2
(0.400468 0.299766 0.136364 0.163402) 101 199 1
(0.686041 0.156979 0.0206158 0.136364) 126 199 1
(0.0624125 0.468794 0.33243 0.136364) 151 248 1
(0.727273 0.136364 0.0536616 0.0827021) 151 294 2
(0.364499 0.31775 0.181387 0.136364) 176 297 1
(0.64818 0.17591 0.136364 0.0395462) 176 346 1
(0.627677 0.186162 0.049798 0.136364) 201 346 1
(0.167934 0.416033 0.136364 0.27967) 201 395 1
(0.727273 0.136364 0.00949059 0.126873) 226 441 2
(0.30723 0.346385 0.210021 0.136364) 251 444 1
(0.621474 0.189263 0.136364 0.0528991) 251 493 1
(0.727273 0.136364 0.102855 0.0335086) 276 539 2
(0.232853 0.383573 0.136364 0.24721) 276 542 1
(0.710512 0.144744 0.136364 0.00838032) 301 591 1
(0.11644 0.44178 0.305416 0.136364) 326 591 1
(0.414308 0.292846 0.136364 0.156482) 326 640 1
(0.624823 0.187589 0.051225 0.136364) 351 640 1
(0.0868435 0.456578 0.136364 0.320215) 351 689 1
(0.727273 0.0248536 0.136364 0.11151) 376 735 1
(0.335 0.3325 0.196136 0.136364) 401 738 1
(0.0990369 0.450482 0.136364 0.314118) 401 787 1
(0.727273 0.136364 0.106447 0.0299162) 426 833 2
(0.404913 0.297543 0.16118 0.136364) 451 836 1
(0.570151 0.214924 0.136364 0.0785606) 451 885 1
(0.0999214 0.450039 0.161446 0.288593) 3 3653 2
(0.100184 0.449908 0.367502 0.0824058) 3 3653 2
(0.0867815 0.456609 0.00729542 0.449314) 1 2 2
(0.0999876 0.450006 0.00909942 0.440907) 2 3652 2
(0.100098 0.449951 0.26499 0.184961) 3 3653 2
(0.100002 0.449999 0.111414 0.338585) 2 3652 2
(0.100974 0.449513 0.0605872 0.388926) 3 3653 2
(0.101086 0.377753 0.0717042 0.449457) 2 3652 1
(0.119532 0.0583664 0.381867 0.440234) 2 3652 1
(0.100974 0.449513 0.420171 0.0293416) 2 3652 2
(0.0998826 0.450059 0.211532 0.238527) 2 3652 2
(0.277846 0.361077 0.17352 0.187557) 2 3652 2
(0.0247791 0.48761 0.0389798 0.448631) 2 4 2
(0.1024 0.4488 0.312916 0.135884) 2 3652 2
(0.0970589 0.451471 0.368962 0.0825084) 3 4 2
(0.111284 0.166048 0.27831 0.444358) 2 3652 1
(0.278462 0.335356 0.0254128 0.360769) 2 3652 1
(0.16829 0.248352 0.167503 0.415855) 2 3652 1
(0.0400647 0.479968 0.202714 0.277254) 2 4 2
(0.522521 0.0114665 0.238739 0.227273) 2 5 2
(0.545455 0.227273 0.113509 0.113764) 27 53 2
(0.377392 0.0840315 0.311304 0.227273) 27 54 2
(0.545455 0.162107 0.0651655 0.227273) 52 102 1
(0.131684 0.206885 0.227273 0.434158) 77 103 2
(0.545455 0.177132 0.0501404 0.227273) 77 151 1
(0.545455 0.227273 0.0352963 0.191976) 102 200 2
(0.541392 0.00203104 0.229304 0.227273) 102 201 2
(0.423802 0.0608265 0.227273 0.288099) 127 201 2
(0.0796101 0.232922 0.460195 0.227273) 127 250 2
(0.545455 0.227273 0.103564 0.123709) 152 298 2
(0.398002 0.0737264 0.300999 0.227273) 152 299 2
(0.545455 0.193429 0.033844 0.227273) 177 347 1
(0.00365476 0.2709 0.498173 0.227273) 177 348 2
(0.545455 0.227273 0.128657 0.0986157) 202 396 2
(0.385331 0.0800619 0.307335 0.227273) 202 397 2
(0.417428 0.0640135 0.227273 0.291286) 227 397 2
(0.545455 0.113923 0.11335 0.227273) 227 445 1
(0.465072 0.0401913 0.227273 0.267464) 252 446 2
(0.413018 0.0662182 0.293491 0.227273) 252 495 2
(0.363513 0.0909707 0.227273 0.318243) 277 495 2
(0.545455 0.155725 0.0715482 0.227273) 277 543 1
(0.0706158 0.237419 0.464692 0.227273) 277 544 2
(0.545455 0.210861 0.0164114 0.227273) 302 592 1
(0.357774 0.0938401 0.227273 0.321113) 327 593 2
(0.545455 0.122566 0.104706 0.227273) 327 641 1
(0.0626137 0.24142 0.227273 0.468693) 352 642 2
(0.545455 0.227273 0.200855 0.0264177) 352 690 2
(0.00773282 0.268861 0.496134 0.227273) 352 691 2
(0.35004 0.0977075 0.32498 0.227273) 377 740 2
(0.545455 0.0514571 0.175816 0.227273) 402 788 1
(0.100785 0.365137 0.0844706 0.449608) 4 3654 1
(0.100023 0.432117 0.0178721 0.449989) 3 3653 1
(0.099993 0.264577 0.185427 0.450004) 4 3654 1
(0.100882 0.226349 0.22321 0.449559) 3 3653 1
(0.101496 0.32892 0.120332 0.449252) 3 3653 1
(0.105556 0.447222 0.426314 0.0209084) 4 3654 2
(0.100966 0.449517 0.328055 0.121462) 4 3654 2
(0.100062 0.126167 0.323802 0.449969) 3 3653 1
(0.105163 0.0233763 0.424042 0.447418) 3 3653 1
(0.108509 0.445745 0.0842375 0.361508) 4 3654 2
(0.0528683 0.473566 0.447294 0.0262715) 4 6 2
(0.275239 0.328344 0.034036 0.36238) 4 3654 1
(0.280525 0.182499 0.177238 0.359738) 3 3653 1
(0.100297 0.449851 0.225519 0.224333) 4 3654 2
(0.282408 0.358796 0.285374 0.0734219) 4 3654 2
(0.275647 0.362177 0.187004 0.175173) 4 3654 2
(0.245159 0.37742 0.0191721 0.358248) 3 6 2
(0.255326 0.372337 0.0847717 0.287565) 4 3654 2
(0.433561 0.283219 0.267245 0.0159743) 4 6 2
(0.181818 0.054773 0.409091 0.354318) 4 6 1
(0.181818 0.409091 0.0992818 0.309809) 29 55 2
(0.181818 0.00131498 0.409091 0.407776) 29 55 1
(0.181818 0.218472 0.409091 0.190619) 54 104 1
(0.181818 0.409091 0.372458 0.0366327) 79 153 2
(0.181818 0.114685 0.409091 0.294405) 79 153 1
(0.181818 0.409091 0.08297 0.326121) 104 202 2
(0.181818 0.0395571 0.409091 0.369534) 104 202 1
(0.181818 0.275406 0.409091 0.133684) 129 251 1
(0.181818 0.409091 0.406492 0.00259875) 154 300 2
(0.181818 0.181405 0.409091 0.227686) 154 300 1
(0.181818 0.409091 0.152859 0.256232) 179 349 2
(0.181818 0.0272969 0.409091 0.381794) 179 349 1
(0.181818 0.312434 0.409091 0.0966566) 204 398 1
(0.094252 0.452874 0.0437831 0.409091) 229 401 1
(0.181818 0.12604 0.409091 0.283051) 229 447 1
(0.181818 0.409091 0.287551 0.12154) 254 496 2
(0.181818 0.0124736 0.409091 0.396617) 254 496 1
(0.181818 0.409091 0.139142 0.269949) 279 545 2
(0.0244845 0.487758 0.0786669 0.409091) 304 548 1
(0.181818 0.399192 0.409091 0.0098988) 304 594 1
(0.181818 0.409091 0.279541 0.12955) 329 643 2
(0.181818 0.108304 0.409091 0.300787) 329 643 1
(0.181818 0.359072 0.409091 0.0500193) 354 692 1
(0.181818 0.409091 0.34444 0.0646513) 379 741 2
(0.181818 0.0278036 0.409091 0.381287) 379 741 1
(0.181818 0.383818 0.409091 0.0252733) 404 790 1
(0.181818 0.409091 0.277927 0.131164) 429 839 2
(0.181818 0.0284233 0.409091 0.380668) 429 839 1
(0.181818 0.350901 0.409091 0.0581895) 454 888 1
(0.181818 0.409091 0.279944 0.129147) 479 937 2
(0.100954 0.238323 0.211201 0.449523) 5 3655 1
(0.100023 0.164614 0.285375 0.449988) 4 3654 1
(0.0951362 0.452432 0.448026 0.00440588) 6 10 2
(0.102284 0.02656 0.422298 0.448858) 5 3655 1
(0.0999959 0.0623785 0.387624 0.450002) 4 3654 1
(0.0243714 0.487814 0.0378088 0.450006) 4 8 2
(0.0999896 0.450005 0.0378809 0.412124) 5 3655 2
(0.117851 0.344489 0.096585 0.441074) 5 3655 1
(0.102042 0.448979 0.138947 0.310032) 5 3655 2
(0.103041 0.448479 0.443765 0.00471418) 5 3655 2
(0.101888 0.449056 0.240859 0.208197) 5 3655 2
(0.14345 0.428275 0.319736 0.108539) 5 3655 2
(0.0282786 0.485861 0.116668 0.369192) 5 10 2
(0.103642 0.126651 0.321528 0.448179) 5 3655 1
(0.282343 0.358828 0.0951149 0.263714) 5 3655 2
(0.289352 0.0803347 0.274989 0.355324) 5 3655 1
(0.286348 0.197697 0.159129 0.356826) 5 3655 1
(0.317466 0.304594 0.0366726 0.341267) 5 3655 1
(0.383272 0.308364 0.140301 0.168063) 5 3655 2
(0.823592 0.0882041 0.0454545 0.0427495) 5 11 1
(0.796719 0.10164 0.0561859 0.0454545) 30 11 1
(0.365254 0.317373 0.0454545 0.271918) 30 60 1
(0.721169 0.139416 0.0939611 0.0454545) 55 60 1
(0.0930428 0.453479 0.408024 0.0454545) 80 109 1
(0.905238 0.0473808 0.00192622 0.0454545) 80 109 1
(0.280787 0.359607 0.0454545 0.314152) 80 158 1
(0.909091 0.0454545 0.0358429 0.0096116) 105 204 2
(0.136722 0.431639 0.386185 0.0454545) 130 207 1
(0.908915 0.0455426 8.80977e-05 0.0454545) 130 207 1
(0.338435 0.330782 0.0454545 0.285328) 130 256 1
(0.388147 0.305927 0.260472 0.0454545) 155 256 1
(0.908086 0.0459568 0.0454545 0.000502268) 155 305 1
(0.215852 0.392074 0.0454545 0.346619) 155 305 1
(0.479965 0.260017 0.214563 0.0454545) 180 305 1
(0.807922 0.096039 0.0454545 0.0505844) 180 354 1
(0.0774871 0.461256 0.0454545 0.415802) 180 354 1
(0.685155 0.157423 0.111968 0.0454545) 205 354 1
(0.251522 0.374239 0.0454545 0.328784) 205 403 1
(0.876291 0.0618546 0.0454545 0.0164001) 230 452 1
(0.0728352 0.463582 0.0454545 0.418128) 230 452 1
(0.688451 0.155775 0.0454545 0.11032) 255 501 1
(0.415033 0.292484 0.247029 0.0454545) 280 501 1
(0.734608 0.132696 0.0454545 0.0872416) 280 550 1
(0.776868 0.111566 0.0661112 0.0454545) 305 550 1
(0.216894 0.391553 0.346099 0.0454545) 330 599 1
(0.342162 0.328919 0.0454545 0.283464) 330 648 1
(0.850754 0.0746231 0.0291686 0.0454545) 355 648 1
(0.260365 0.369818 0.324363 0.0454545) 380 697 1
(0.882089 0.0589556 0.0454545 0.0135011) 380 746 1
(0.228895 0.385553 0.340098 0.0454545) 405 746 1
(0.0999762 0.450012 0.298867 0.151145) 6 3656 2
(0.100026 0.449987 0.0981146 0.351872) 6 3656 2
(0.100509 0.449746 0.326122 0.123624) 7 3657 2
(0.100215 0.449893 0.22052 0.229373) 7 3657 2
(0.0999848 0.450008 0.198474 0.251534) 6 3656 2
(0.101627 0.449186 0.426772 0.0224144) 7 3657 2
(0.100915 0.449543 0.0195075 0.430035) 7 3657 2
(0.0999955 0.450002 0.400991 0.0490111) 6 3656 2
(0.0635592 0.46822 0.0195758 0.448645) 6 12 2
(0.100368 0.398611 0.0512046 0.449816) 6 3656 1
(0.108147 0.0865238 0.359403 0.445926) 6 3656 1
(0.100255 0.298648 0.151225 0.449873) 6 3656 1
(0.120463 0.181816 0.257952 0.439768) 6 3656 1
(0.274051 0.362974 0.28978 0.0731941) 7 3657 2
(0.270815 0.364592 0.188188 0.176405) 7 3657 2
(0.122402 0.438799 0.108385 0.330414) 7 3657 2
(0.370729 0.314635 0.311079 0.00355601) 7 12 2
(0.168503 0.415749 0.0533176 0.362431) 6 12 2
(0.355327 0.134449 0.187887 0.322336) 6 3656 1
(0.362285 0.000675713 0.318858 0.318182) 6 13 2
(0.363636 0.318182 0.223466 0.094716) 31 61 2
(0.267055 0.0482906 0.366472 0.318182) 31 62 2
(0.363636 0.182988 0.135194 0.318182) 56 110 1
(0.18086 0.0913882 0.318182 0.40957) 81 111 2
(0.363636 0.187367 0.130815 0.318182) 81 159 1
(0.363636 0.318182 0.160903 0.157279) 106 208 2
(0.363636 0.0596489 0.258533 0.318182) 106 208 1
(0.363636 0.318182 0.175856 0.142326) 131 257 2
(0.00958138 0.177027 0.495209 0.318182) 131 258 2
(0.363636 0.318182 0.218601 0.0995813) 156 306 2
(0.165967 0.0988345 0.318182 0.417016) 181 307 2
(0.363636 0.265853 0.0523287 0.318182) 181 355 1
(0.106037 0.1288 0.318182 0.446982) 206 356 2
(0.363636 0.111608 0.206574 0.318182) 206 404 1
(0.292546 0.0355451 0.318182 0.353727) 231 405 2
(0.155885 0.103875 0.422057 0.318182) 231 454 2
(0.363636 0.318182 0.231331 0.0868506) 256 502 2
(0.363636 0.318182 0.00402136 0.31416) 281 551 2
(0.363636 0.044535 0.273647 0.318182) 281 551 1
(0.363636 0.318182 0.307296 0.010886) 306 600 2
(0.194501 0.0845675 0.318182 0.402749) 331 601 2
(0.363636 0.12083 0.197352 0.318182) 331 649 1
(0.363636 0.318182 0.192603 0.125579) 356 698 2
(0.221243 0.0711965 0.389378 0.318182) 356 699 2
(0.363636 0.178482 0.1397 0.318182) 381 747 1
(0.244037 0.0597995 0.318182 0.377981) 406 748 2
(0.195259 0.0841889 0.402371 0.318182) 406 797 2
(0.363636 0.318182 0.210354 0.107828) 431 845 2
(0.363636 0.318182 0.0121612 0.306021) 456 894 2
(0.363636 0.124326 0.193855 0.318182) 456 894 1
(0.100698 0.0613257 0.388325 0.449651) 7 3657 1
(0.099883 0.149741 0.300317 0.450059) 8 3658 1
(0.10035 0.370223 0.0796017 0.449825) 7 3657 1
(0.0999761 0.355707 0.0943049 0.450012) 8 3658 1
(0.102113 0.252522 0.196422 0.448943) 8 3658 1
(0.10079 0.268877 0.180728 0.449605) 7 3657 1
(0.100558 0.166709 0.283012 0.449721) 7 3657 1
(0.100008 0.449996 0.443548 0.00644796) 8 3658 2
(0.0190984 0.490451 0.040511 0.44994) 7 14 2
(0.0999913 0.450004 0.342863 0.107141) 8 3658 2
(0.103121 0.448439 0.0396794 0.40876) 8 3658 2
(0.109893 0.445053 0.237143 0.207911) 8 3658 2
(0.101513 0.449244 0.140436 0.308808) 8 3658 2
(0.271737 0.0277076 0.336424 0.364132) 7 3657 1
(0.300349 0.275708 0.0741178 0.349825) 7 3657 1
(0.308492 0.155101 0.190653 0.345754) 7 3657 1
(0.278885 0.11247 0.248088 0.360558) 8 3658 1
(0.0821684 0.458916 0.107925 0.350991) 7 14 2
(0.387223 0.306388 0.293291 0.0130976) 8 3658 2
(0.297922 0.351039 0.318182 0.0328574) 8 17 1
(0.363636 0.318182 0.104118 0.214064) 33 63 2
(0.15889 0.420555 0.318182 0.102373) 33 66 1
(0.363636 0.137891 0.318182 0.180291) 58 112 1
(0.199413 0.400294 0.0821118 0.318182) 83 115 1
(0.363636 0.0494774 0.318182 0.268704) 83 161 1
(0.363636 0.318182 0.12884 0.189342) 108 210 2
(0.346134 0.326933 0.318182 0.00875098) 108 213 1
(0.363636 0.218303 0.318182 0.0998787) 133 259 1
(0.120887 0.439557 0.121375 0.318182) 158 262 1
(0.363636 0.135207 0.318182 0.182975) 158 308 1
(0.363636 0.318182 0.167606 0.150576) 183 357 2
(0.363636 0.0218214 0.318182 0.29636) 183 357 1
(0.363636 0.268152 0.318182 0.05003) 208 406 1
(0.0362411 0.481879 0.318182 0.163698) 208 409 1
(0.363636 0.246072 0.318182 0.0721098) 233 455 1
(0.336825 0.331588 0.0134058 0.318182) 258 458 1
(0.363636 0.223354 0.318182 0.0948274) 258 504 1
(0.363636 0.318182 0.236533 0.0816487) 283 553 2
(0.363636 0.175824 0.318182 0.142358) 283 553 1
(0.363636 0.318182 0.275618 0.0425641) 308 602 2
(0.363636 0.00955716 0.318182 0.308625) 308 602 1
(0.363636 0.318182 0.231526 0.0866562) 333 651 2
(0.363636 0.167535 0.318182 0.150646) 333 651 1
(0.363636 0.0609964 0.318182 0.257185) 333 651 1
(0.229578 0.385211 0.318182 0.067029) 333 654 1
(0.244654 0.377673 0.0594913 0.318182) 358 654 1
(0.363636 0.257411 0.318182 0.060771) 358 700 1
(0.330208 0.334896 0.0167141 0.318182) 383 703 1
(0.170604 0.414698 0.318182 0.0965161) 383 752 1
(0.363636 0.138195 0.318182 0.179987) 408 798 1
(0.0454034 0.477298 0.450016 0.0272827) 10 18 2
(0.100001 0.449999 0.173178 0.276821) 10 3660 2
(0.0999947 0.0489034 0.401099 0.450003) 8 3658 1
(0.00319054 0.498405 0.449987 0.0484178) 9 16 2
(0.0999998 0.45 0.0730001 0.377) 10 3660 2
(0.100935 0.449532 0.0548134 0.394719) 9 3659 2
(0.0998119 0.0281089 0.421985 0.450094) 9 3659 1
(0.0999689 0.450016 0.155626 0.294389) 9 3659 2
(0.101311 0.128127 0.321218 0.449345) 9 3659 1
(0.102664 0.448668 0.363326 0.0853423) 9 3659 2
(0.100155 0.330371 0.119551 0.449922) 9 3659 1
(0.102818 0.448591 0.261128 0.187463) 9 3659 2
(0.107273 0.431222 0.0151414 0.446363) 9 3659 1
(0.27664 0.36168 0.0187379 0.342942) 9 3659 2
(0.227659 0.386171 0.0346189 0.351552) 9 18 2
(0.270827 0.364586 0.122677 0.241909) 9 3659 2
(0.122227 0.219901 0.218986 0.438887) 9 3659 1
(0.310251 0.066261 0.278613 0.344874) 9 3659 1
(0.312903 0.237329 0.106219 0.343548) 9 3659 1
(0.713843 0.0976241 0.143079 0.0454545) 9 19 2
(0.776289 0.066401 0.0454545 0.111856) 34 19 2
(0.400369 0.254361 0.299815 0.0454545) 34 68 2
(0.614893 0.147099 0.0454545 0.192554) 59 68 2
(0.0488602 0.430115 0.0454545 0.47557) 84 117 2
(0.855519 0.0267859 0.0454545 0.0722405) 84 117 2
(0.343206 0.282942 0.328397 0.0454545) 84 166 2
(0.702902 0.103095 0.0454545 0.148549) 109 166 2
(0.00275313 0.453169 0.0454545 0.498623) 134 215 2
(0.752198 0.0784465 0.0454545 0.123901) 134 215 2
(0.52265 0.193221 0.238675 0.0454545) 134 264 2
(0.175426 0.366833 0.0454545 0.412287) 159 264 2
(0.86665 0.0212203 0.0454545 0.0666749) 159 264 2
(0.44507 0.23201 0.277465 0.0454545) 159 313 2
(0.25263 0.328231 0.0454545 0.373685) 184 313 2
(0.909091 0.0454545 0.0360753 0.00937926) 184 361 2
(0.249343 0.329874 0.375329 0.0454545) 184 362 2
(0.548063 0.180514 0.0454545 0.225969) 209 362 2
(0.633006 0.138043 0.183497 0.0454545) 209 411 2
(0.714216 0.0974377 0.0454545 0.142892) 234 411 2
(0.13007 0.38951 0.434965 0.0454545) 234 460 2
(0.909091 0.0259186 0.0195359 0.0454545) 259 508 1
(0.514839 0.197126 0.0454545 0.242581) 284 509 2
(0.135796 0.386647 0.0454545 0.432102) 309 558 2
(0.240133 0.334479 0.379934 0.0454545) 309 607 2
(0.602966 0.153062 0.198517 0.0454545) 334 656 2
(0.909091 0.0190032 0.0264514 0.0454545) 359 704 1
(0.573101 0.167995 0.0454545 0.21345) 384 705 2
(0.146616 0.381238 0.0454545 0.426692) 409 754 2
(0.719033 0.0950289 0.140483 0.0454545) 409 803 2
(0.866293 0.0213991 0.0454545 0.0668537) 434 803 2
(0.100058 0.449971 0.425131 0.0248398) 11 3661 2
(0.100039 0.37275 0.0772305 0.449981) 11 3661 1
(0.0999928 0.450004 0.274193 0.17581) 10 3660 2
(0.0999243 0.450038 0.37726 0.072778) 10 3660 2
(0.10014 0.44993 0.325001 0.124929) 11 3661 2
(0.10001 0.413607 0.0363881 0.449995) 10 3660 1
(0.115063 0.442469 0.00757071 0.434898) 11 3661 2
(0.102661 0.44867 0.11414 0.334529) 11 3661 2
(0.10192 0.31147 0.13757 0.44904) 10 3660 1
(0.101188 0.210192 0.239214 0.449406) 10 3660 1
(0.100913 0.449544 0.221962 0.227581) 11 3661 2
(0.0769821 0.461509 0.016641 0.444868) 10 20 2
(0.136524 0.0712669 0.360471 0.431738) 10 3660 1
(0.26944 0.36528 0.347519 0.0177612) 10 3660 2
(0.279981 0.360009 0.291035 0.0689741) 11 3661 2
(0.274458 0.173989 0.188782 0.362771) 10 3660 1
(0.286548 0.356726 0.184659 0.172067) 11 3661 2
(0.306963 0.346519 0.00792006 0.338599) 11 3661 2
(0.327013 0.0275392 0.308954 0.336493) 10 3660 1
(0.181818 0.11681 0.292281 0.409091) 10 20 1
(0.181818 0.409091 0.310714 0.0983771) 35 69 2
(0.181818 0.089167 0.319924 0.409091) 35 69 1
(0.181818 0.372528 0.0365625 0.409091) 60 118 1
(0.141438 0.0201903 0.409091 0.429281) 85 119 2
(0.181818 0.402171 0.00692022 0.409091) 85 167 1
(0.181818 0.409091 0.16634 0.242751) 110 216 2
(0.181818 0.189333 0.219758 0.409091) 110 216 1
(0.181818 0.409091 0.0987958 0.310295) 135 265 2
(0.163741 0.00903878 0.41813 0.409091) 135 266 2
(0.181818 0.409091 0.220762 0.188329) 160 314 2
(0.181818 0.0415415 0.367549 0.409091) 160 314 1
(0.181818 0.409091 0.313555 0.0955359) 185 363 2
(0.181818 0.0280427 0.381048 0.409091) 185 363 1
(0.181818 0.343557 0.0655339 0.409091) 210 412 1
(0.138904 0.021457 0.409091 0.430548) 235 413 2
(0.181818 0.0369312 0.37216 0.409091) 235 461 1
(0.181818 0.409091 0.30546 0.103631) 260 510 2
(0.181818 0.409091 0.148699 0.260392) 285 559 2
(0.181818 0.152778 0.256313 0.409091) 285 559 1
(0.181818 0.3016 0.107491 0.409091) 310 608 1
(0.181818 0.409091 0.0148383 0.394253) 335 657 2
(0.132025 0.0248967 0.433988 0.409091) 335 658 2
(0.181818 0.409091 0.357849 0.0512419) 360 706 2
(0.181818 0.409091 0.0908346 0.318256) 385 755 2
(0.181818 0.151454 0.257637 0.409091) 385 755 1
(0.181818 0.409091 0.320544 0.0885467) 410 804 2
(0.104829 0.0384947 0.409091 0.447586) 435 805 2
(0.181818 0.298715 0.110376 0.409091) 435 853 1
(0.181818 0.409091 0.245481 0.16361) 460 902 2
(0.181818 0.143668 0.265423 0.409091) 460 902 1
(0.102857 0.217712 0.230859 0.448571) 12 3662 1
(0.100079 0.271718 0.178243 0.44996) 11 3661 1
(0.0324116 0.483794 0.0338399 0.449954) 12 24 2
(0.100092 0.171035 0.278919 0.449954) 11 3661 1
(0.0999121 0.0704528 0.379591 0.450044) 11 3661 1
(0.105115 0.0706007 0.376842 0.447442) 12 3662 1
(0.100363 0.449819 0.0473732 0.402446) 12 3662 2
(0.100137 0.320573 0.129359 0.449931) 12 3662 1
(0.101578 0.42115 0.0280615 0.449211) 12 3662 1
(0.110157 0.444921 0.150253 0.294669) 12 3662 2
(0.107335 0.446333 0.360313 0.0860194) 12 3662 2
(0.123 0.4385 0.252171 0.186329) 12 3662 2
(0.0376033 0.481198 0.0318985 0.4493) 11 22 2
(0.24333 0.0748192 0.303516 0.378335) 12 3662 1
(0.284787 0.0399253 0.317681 0.357606) 11 3661 1
(0.14717 0.426415 0.0664532 0.359962) 11 22 2
(0.0770055 0.461497 0.366693 0.0948038) 12 22 2
(0.305394 0.223938 0.123364 0.347303) 12 3662 1
(0.300467 0.349767 0.110419 0.239347) 12 3662 2
(0.545455 0.0373038 0.227273 0.189969) 12 22 1
(0.545455 0.227273 0.113806 0.113467) 37 71 2
(0.374114 0.312943 0.227273 0.0856703) 37 74 1
(0.545455 0.183982 0.227273 0.043291) 62 120 1
(0.146366 0.426817 0.199544 0.227273) 87 123 1
(0.545455 0.185703 0.227273 0.0415698) 87 169 1
(0.545455 0.227273 0.201604 0.0256686) 112 218 2
(0.532956 0.233522 0.227273 0.0062492) 112 221 1
(0.395265 0.302368 0.0750948 0.227273) 137 221 1
(0.138872 0.430564 0.227273 0.203291) 137 270 1
(0.545455 0.227273 0.163334 0.0639383) 162 316 2
(0.545455 0.00601592 0.227273 0.221257) 162 316 1
(0.345135 0.327433 0.10016 0.227273) 187 319 1
(0.399584 0.300208 0.227273 0.0729352) 187 368 1
(0.279289 0.360356 0.133083 0.227273) 212 368 1
(0.545455 0.227273 0.145076 0.0821964) 212 414 2
(0.545455 0.206729 0.227273 0.0205439) 212 414 1
(0.360149 0.319926 0.227273 0.092653) 212 417 1
(0.386334 0.306833 0.0795602 0.227273) 237 417 1
(0.545455 0.10915 0.227273 0.118123) 237 463 1
(0.545455 0.227273 0.0961542 0.131119) 262 512 2
(0.389393 0.305303 0.0780308 0.227273) 287 515 1
(0.100413 0.449794 0.222521 0.227273) 312 564 1
(0.0706885 0.464656 0.227273 0.237383) 312 613 1
(0.545455 0.0228523 0.227273 0.20442) 337 659 1
(0.545455 0.227273 0.0202479 0.207025) 362 708 2
(0.275795 0.362103 0.13483 0.227273) 387 711 1
(0.367612 0.316194 0.227273 0.088921) 387 760 1
(0.545455 0.208467 0.227273 0.0188061) 412 806 1
(0.307342 0.346329 0.119056 0.227273) 437 809 1
(0.192567 0.403716 0.227273 0.176444) 437 858 1
(0.100025 0.304346 0.145642 0.449988) 14 3664 1
(0.0999883 0.0683997 0.381606 0.450006) 14 3664 1
(0.0999819 0.450009 0.0367031 0.413306) 13 3663 2
(0.0999935 0.450003 0.137587 0.312416) 13 3663 2
(0.100012 0.202992 0.247002 0.449994) 14 3664 1
(0.0999819 0.450009 0.239679 0.21033) 13 3663 2
(0.100839 0.407949 0.0416316 0.449581) 14 3664 1
(0.100776 0.449612 0.346317 0.103295) 13 3663 2
(0.104733 0.447634 0.287339 0.160295) 14 3664 2
(0.10344 0.23354 0.214741 0.44828) 13 3663 1
(0.0538587 0.473071 0.44758 0.0254903) 14 26 2
(0.0999741 0.450013 0.0981632 0.35185) 14 3664 2
(0.11262 0.127696 0.315994 0.44369) 13 3663 1
(0.110855 0.444573 0.384538 0.0600352) 14 3664 2
(0.100525 0.444836 0.00490178 0.449737) 13 3663 1
(0.213494 0.393253 0.135443 0.25781) 14 3664 2
(0.110355 0.339437 0.105386 0.444822) 13 3663 1
(0.126522 0.436739 0.0364223 0.400317) 13 26 2
(0.253436 0.373282 0.0781548 0.295127) 13 26 2
(0.71824 0.00451643 0.136364 0.14088) 13 3663 1
(0.727273 0.136364 0.0017437 0.13462) 38 75 2
(0.429831 0.148721 0.285085 0.136364) 38 76 2
(0.509039 0.109117 0.136364 0.245481) 63 76 2
(0.00515269 0.36106 0.497424 0.136364) 63 125 2
(0.727273 0.136364 0.0610642 0.0752994) 88 173 2
(0.335104 0.196084 0.332448 0.136364) 88 174 2
(0.727273 0.0892218 0.0471419 0.136364) 113 222 1
(0.0998533 0.31371 0.136364 0.450073) 138 223 2
(0.727273 0.0880164 0.0483472 0.136364) 138 271 1
(0.54341 0.0919316 0.136364 0.228295) 163 272 2
(0.511526 0.107873 0.244237 0.136364) 163 321 2
(0.727273 0.136364 0.129097 0.00726701) 188 369 2
(0.0850268 0.321123 0.457487 0.136364) 188 370 2
(0.698358 0.0144571 0.150821 0.136364) 213 419 2
(0.220005 0.253634 0.136364 0.389998) 238 419 2
(0.228529 0.249372 0.385736 0.136364) 238 468 2
(0.727273 0.136364 0.0800732 0.0562904) 263 516 2
(0.642972 0.0421505 0.136364 0.178514) 288 517 2
(0.280292 0.223491 0.359854 0.136364) 288 566 2
(0.588024 0.0696244 0.205988 0.136364) 313 615 2
(0.425149 0.151062 0.136364 0.287425) 338 615 2
(0.0800956 0.323589 0.136364 0.459952) 363 664 2
(0.727273 0.0917688 0.0445948 0.136364) 363 712 1
(0.722213 0.00252969 0.136364 0.138893) 388 713 2
(0.234366 0.246454 0.382817 0.136364) 388 762 2
(0.630676 0.0482983 0.184662 0.136364) 413 811 2
(0.422309 0.152482 0.136364 0.288846) 438 811 2
(0.0341383 0.346567 0.136364 0.482931) 463 860 2
(0.727273 0.0910242 0.0453394 0.136364) 463 908 1
(0.721987 0.00264304 0.136364 0.139007) 488 909 2
)


// ************************************************************************* //
