/*--------------------------------*- C++ -*----------------------------------*\
  =========                 |
  \\      /  F ield         | OpenFOAM: The Open Source CFD Toolbox
   \\    /   O peration     | Website:  https://openfoam.org
    \\  /    A nd           | Version:  dev
     \\/     M anipulation  |
\*---------------------------------------------------------------------------*/
FoamFile
{
    version     2.0;
    format      ascii;
    class       vectorField;
    location    "1/lagrangian/kinematicCloud";
    object      U;
}
// * * * * * * * * * * * * * * * * * * * * * * * * * * * * * * * * * * * * * //


500
(
(-0.017511 -1.844e-05 -9.83546e-22)
(0.0193497 0.00198517 0)
(-0.0130718 -0.0228012 0)
(-0.0151378 0.007247 0)
(-0.0175688 0.00030638 0)
(-0.0212113 -0.00556213 1.27952e-19)
(-0.0163883 0.00144969 0)
(-0.0322281 -0.00430815 0)
(-0.0198435 -0.00869821 0)
(-0.0168702 -0.00698822 0)
(-0.00668357 -0.0158187 0)
(-0.00921647 0.0155777 0)
(0.00780375 0.00941043 0)
(-0.00992298 0.0133163 0)
(0.0116203 0.0556565 0)
(-0.0107212 0.00497928 0)
(-0.0116071 0.0134601 0)
(-0.0182349 -0.0063847 0)
(-0.0314034 -0.0733402 0)
(0 -0.192551 0)
(0 -0.122089 0)
(0 -0.121471 0)
(0 -0.119999 0)
(0 -0.117927 0)
(0 -0.117906 0)
(0 -0.115036 0)
(0 -0.114998 0)
(0 -0.113921 0)
(0 -0.113896 0)
(0 -0.113896 0)
(0 -0.113847 0)
(0 -0.113847 0)
(0 -0.113923 0)
(0 -0.113882 0)
(0 -0.113897 0)
(0 -0.113898 0)
(0 -0.1139 0)
(0 -0.114271 0)
(0 -0.114287 0)
(0 -0.11458 0)
(0 -0.115241 0)
(0 -0.115829 0)
(0 -0.120353 0)
(0 -0.125323 0)
(0 -0.128142 0)
(0 -0.129835 0)
(0 -0.128455 0)
(0 -0.127661 0)
(0 -0.124833 0)
(0 -0.124799 0)
(0.0195482 0.000194763 -1.25064e-20)
(0.0361708 0.00025596 0)
(0.00443428 -0.00394369 0)
(-0.00834333 4.30477e-06 2.42139e-20)
(0.0262504 -0.00504824 0)
(-0.00182642 -0.00213866 0)
(-0.00727855 0.0100718 0)
(-0.012714 -0.024508 0)
(-0.0173517 -0.0215807 0)
(-0.00683494 0.00918282 0)
(0.00205093 -0.0141301 5.14935e-19)
(-0.0195512 0.00887103 0)
(-0.00182333 -0.0176521 0)
(-0.0105937 0.00170522 0)
(-0.0162033 -0.00104476 0)
(0.0407091 0.0104614 0)
(-0.00208574 0.0161169 0)
(-0.0177327 -0.0330857 0)
(-0.028537 0.0186877 0)
(0 -0.188804 0)
(0 -0.119335 0)
(0 -0.119053 0)
(0 -0.116917 0)
(0 -0.117048 0)
(0 -0.117053 0)
(0 -0.117749 0)
(0 -0.117771 0)
(0 -0.118276 0)
(0 -0.11832 0)
(0 -0.118413 0)
(0 -0.118406 0)
(0 -0.1185 0)
(0 -0.118347 0)
(0 -0.118344 0)
(0 -0.118108 0)
(0 -0.116936 0)
(0 -0.116904 0)
(0 -0.11389 0)
(0 -0.113879 0)
(0 -0.113869 0)
(0 -0.113906 0)
(0 -0.115886 0)
(0 -0.116818 0)
(0 -0.126169 0)
(0 -0.126307 0)
(0 -0.133591 0)
(0 -0.135235 0)
(0 -0.242068 0)
(0 -0.248203 0)
(0 -0.249703 0)
(-0.00318196 0.00897718 0)
(-0.00197389 0.000294632 0)
(-0.000445747 0.000662501 2.20741e-20)
(-0.00330568 -0.00232896 0)
(0.000844039 -0.00827632 0)
(0.00987168 -0.0158347 0)
(-0.0174239 -0.0199534 0)
(0.00741658 -0.00653804 0)
(-0.0240739 0.0196314 0)
(-0.0388957 -0.0598181 0)
(0.0101365 -0.00460138 0)
(-0.00133989 0.00742938 0)
(-0.0251338 0.00197714 0)
(0.034739 0.0137928 0)
(-0.00306366 -0.0194485 0)
(-0.0125274 0.0103925 0)
(0.00845125 0.00191754 0)
(-0.00202768 0.0111605 0)
(0.0356313 0.013486 0)
(0 -0.166621 0)
(0 -0.119308 0)
(0 -0.118465 0)
(0 -0.116811 0)
(0 -0.115905 0)
(0 -0.115633 0)
(0 -0.113908 0)
(0 -0.113864 0)
(0 -0.11379 0)
(0 -0.113902 0)
(0 -0.113892 0)
(0 -0.113787 0)
(0 -0.113811 0)
(0 -0.113951 0)
(0 -0.113928 0)
(0 -0.113987 0)
(0 -0.114873 0)
(0 -0.116367 0)
(0 -0.120104 0)
(0 -0.130877 0)
(0 -0.130961 0)
(0 -0.135314 0)
(0 -0.135307 0)
(0 -0.135347 0)
(0 -0.135327 0)
(0 -0.134921 0)
(0 -0.134365 0)
(0 -0.132985 0)
(0 -0.13261 0)
(0 -0.132105 0)
(0 -0.131622 0)
(0.00468136 0.00766756 0)
(-0.0102917 -0.000225839 -2.32714e-20)
(0.00924528 0.00135899 0)
(-0.00663473 -0.0243329 0)
(-0.000370539 -0.000285152 7.55964e-22)
(0.00287965 -0.000197607 6.62502e-23)
(-0.00050717 0.00137277 -2.8258e-20)
(-0.0173391 -0.00643048 0)
(-0.00154867 0.00798406 0)
(-0.000140593 -0.0180968 0)
(-0.00986023 -0.00926902 0)
(-0.00100818 0.00824842 0)
(-0.00279239 -0.0152689 0)
(0.00661294 -0.00420013 0)
(0.0139067 -0.0173525 0)
(-0.0270812 -0.00690406 0)
(0.00112731 -0.00251023 0)
(0.000901156 0.00386838 0)
(0.0139879 -0.056448 0)
(0 -0.206685 0)
(0 -0.118481 0)
(0 -0.118266 0)
(0 -0.116852 0)
(0 -0.117281 0)
(0 -0.117281 0)
(0 -0.117304 0)
(0 -0.117085 0)
(0 -0.113866 0)
(0 -0.113863 0)
(0 -0.113805 0)
(0 -0.11367 0)
(0 -0.11367 0)
(0 -0.11371 0)
(0 -0.113855 0)
(0 -0.113854 0)
(0 -0.113803 0)
(0 -0.113801 0)
(0 -0.114334 0)
(0 -0.115625 0)
(0 -0.120953 0)
(0 -0.123775 0)
(0 -0.129842 0)
(0 -0.129968 0)
(0 -0.133226 0)
(0 -0.133189 0)
(0 -0.133298 0)
(0 -0.133854 0)
(0 -0.135215 0)
(0 -0.139033 0)
(0 -0.248695 0)
(0.00249022 -0.000378272 -1.46176e-21)
(0.0179295 -0.00103885 0)
(0.00169276 -0.00304758 0)
(-0.00205818 -0.00414264 0)
(-0.0175215 -0.000391809 3.30148e-20)
(0.00554793 -0.00883348 0)
(-0.0160783 -0.00965382 0)
(-0.0152224 0.000916642 4.47743e-24)
(-0.00683946 -0.00854975 0)
(-0.013171 0.00112926 0)
(-0.00170028 -0.0026798 0)
(0.0023601 0.00287575 0)
(-0.0204525 0.0255717 0)
(-0.00497901 0.00826826 0)
(-0.0113101 0.00262255 0)
(-0.00223845 0.0019273 0)
(0.0250681 0.0182135 0)
(0.00573443 0.0155277 0)
(0.00204794 0.0391875 0)
(0 -0.174276 0)
(0 -0.118727 0)
(0 -0.118295 0)
(0 -0.116852 0)
(0 -0.117306 0)
(0 -0.117311 0)
(0 -0.11807 0)
(0 -0.118066 0)
(0 -0.118134 0)
(0 -0.117973 0)
(0 -0.117956 0)
(0 -0.116646 0)
(0 -0.116669 0)
(0 -0.118348 0)
(0 -0.118528 0)
(0 -0.121547 0)
(0 -0.122368 0)
(0 -0.123579 0)
(0 -0.123495 0)
(0 -0.123105 0)
(0 -0.120468 0)
(0 -0.119154 0)
(0 -0.119138 0)
(0 -0.117752 0)
(0 -0.117735 0)
(0 -0.117829 0)
(0 -0.118556 0)
(0 -0.120053 0)
(0 -0.122368 0)
(0 -0.127467 0)
(0 -0.127497 0)
(0.0216028 -0.000670857 0)
(-0.00873326 -0.00627688 -6.6403e-19)
(0.00575711 -0.00284496 0)
(-0.0220097 0.000763947 1.42302e-21)
(-0.000452817 -0.00213047 0)
(0.0107855 0.00275785 0)
(0.00158806 0.000585539 0)
(0.000681475 0.000393961 0)
(0.0013285 -0.0015686 0)
(-0.000199721 -0.00148273 -8.73227e-20)
(0.014027 -0.00419346 -3.58073e-19)
(0.000753951 -0.00660022 0)
(0.00177109 0.00153097 3.58073e-19)
(0.0112201 0.017689 0)
(-0.013762 0.00155061 0)
(-0.00123065 0.0140535 0)
(-0.000719034 0.00664249 0)
(0.0260297 0.00530663 0)
(0.071877 -0.0538521 0)
(0 -0.168507 0)
(0 -0.120909 0)
(0 -0.119626 0)
(0 -0.117988 0)
(0 -0.11798 0)
(0 -0.117988 0)
(0 -0.118195 0)
(0 -0.118193 0)
(0 -0.118247 0)
(0 -0.118487 0)
(0 -0.118415 0)
(0 -0.117649 0)
(0 -0.117607 0)
(0 -0.117092 0)
(0 -0.1173 0)
(0 -0.11736 0)
(0 -0.117364 0)
(0 -0.117418 0)
(0 -0.121812 0)
(0 -0.122087 0)
(0 -0.132356 0)
(0 -0.133128 0)
(0 -0.135754 0)
(2.25931e-17 -0.1358 0)
(-1.74317e-17 -0.135848 0)
(-7.00347e-18 -0.135987 0)
(0 -0.136413 0)
(0 -0.140055 0)
(0 -0.171086 0)
(0 -0.197232 0)
(0 -0.246504 0)
(-0.000946397 -0.00131505 3.09307e-20)
(8.94919e-05 -0.00030175 0)
(-0.000705435 -0.0028124 1.16354e-22)
(-0.00125549 0.000148106 0)
(0.000313154 0.000640923 3.35546e-22)
(0.004124 -0.0078606 0)
(-0.00319573 -0.0136262 9.96952e-19)
(-0.000328069 0.00327007 -1.04782e-19)
(2.68742e-05 -0.0115239 0)
(0.00540361 0.00588781 0)
(0.0105572 -0.00355054 0)
(0.000603578 0.00587685 0)
(-0.00323059 0.00748019 0)
(0.00162687 0.00303463 0)
(0.0161349 0.0027722 0)
(0.0139472 0.00444278 0)
(0.00431648 0.00115939 0)
(0.00461528 -0.0770109 0)
(0.00431041 -0.101626 0)
(0 -0.146953 0)
(0 -0.117676 0)
(0 -0.117668 0)
(0 -0.117692 0)
(0 -0.117637 0)
(0 -0.117637 0)
(0 -0.11767 0)
(0 -0.117815 0)
(0 -0.116003 0)
(0 -0.116002 0)
(0 -0.115921 0)
(0 -0.115792 0)
(0 -0.115789 0)
(0 -0.11577 0)
(0 -0.115746 0)
(0 -0.115754 0)
(0 -0.115763 0)
(0 -0.115847 0)
(0 -0.115976 0)
(0 -0.118566 0)
(0 -0.121488 0)
(0 -0.124402 0)
(0 -0.130202 0)
(0 -0.132779 0)
(0 -0.132755 0)
(0 -0.132468 0)
(0 -0.129541 0)
(0 -0.127904 0)
(0 -0.127559 0)
(0 -0.127595 0)
(0 -0.128781 0)
(-0.00942267 -0.00178895 0)
(-0.00103549 0.000350929 0)
(0.0100421 -0.000757571 -2.17618e-20)
(0.00579798 0.00461998 -7.06817e-20)
(-0.00518675 0.00534727 0)
(0.011621 0.00303372 0)
(-0.00197293 -0.00884812 0)
(-0.00561914 -0.0116684 0)
(-0.00573739 0.0172881 0)
(0.00654258 -0.0131395 0)
(-0.00737166 -0.00173967 0)
(0.00747274 0.0407749 0)
(0.0139035 0.0323067 0)
(-0.000191427 0.000507563 0)
(-0.00463085 -0.0115935 0)
(0.00288599 0.00262803 0)
(0.00173822 -0.0271995 0)
(0.0246105 -0.00178792 0)
(-0.0341739 -0.0268717 0)
(0 -0.134423 0)
(0 -0.117649 0)
(0 -0.117646 0)
(0 -0.11769 0)
(0 -0.117847 0)
(0 -0.117847 0)
(0 -0.118401 0)
(0 -0.11838 0)
(0 -0.117531 0)
(0 -0.117088 0)
(0 -0.116436 0)
(0 -0.116401 0)
(0 -0.116177 0)
(0 -0.117408 0)
(0 -0.120244 0)
(0 -0.124908 0)
(0 -0.125399 0)
(0 -0.127481 0)
(0 -0.127483 0)
(0 -0.127307 0)
(0 -0.125894 0)
(0 -0.123492 0)
(0 -0.12211 0)
(0 -0.120782 0)
(0 -0.119579 0)
(0 -0.119574 0)
(0 -0.119645 0)
(0 -0.119589 0)
(0 -0.119608 0)
(0 -0.12043 0)
(0 -0.120698 0)
(-0.00487271 -0.00627051 0)
(-0.00256064 -0.000960766 0)
(0.00144941 -0.00382926 0)
(-0.000754159 0.0126132 0)
(-0.0137766 0.014706 2.07985e-20)
(-0.0126371 0.00336265 0)
(-0.00287706 0.0036598 0)
(-0.0262051 -3.35256e-05 0)
(-0.0109097 0.0192182 0)
(-0.00347916 0.0152072 0)
(-0.0243678 -0.0214493 0)
(0.0631205 -0.0201593 0)
(0.00468022 -0.00481568 0)
(0.00577247 0.0212321 0)
(-0.0156578 0.00176533 0)
(0.000734259 -0.0222774 0)
(-0.0096697 -0.0288499 0)
(0.0822249 -0.0167242 0)
(0.0173608 0.0535778 0)
(0 -0.195375 0)
(0 -0.11905 0)
(0 -0.118866 0)
(0 -0.117684 0)
(0 -0.118221 0)
(0 -0.118219 0)
(0 -0.118537 0)
(0 -0.118515 0)
(0 -0.118526 0)
(0 -0.118206 0)
(0 -0.118039 0)
(0 -0.118024 0)
(0 -0.117369 0)
(0 -0.11755 0)
(0 -0.118906 0)
(0 -0.118912 0)
(0 -0.118941 0)
(0 -0.119675 0)
(0 -0.123637 0)
(0 -0.123739 0)
(0 -0.12742 0)
(0 -0.127934 0)
(0 -0.12894 0)
(0 -0.128926 0)
(0 -0.128958 0)
(0 -0.128998 0)
(0 -0.128895 0)
(0 -0.128824 0)
(0 -0.128458 0)
(0 -0.127823 0)
(0 -0.127653 0)
(0.014904 -0.0012054 0)
(0.0126944 -3.50702e-06 -5.92249e-22)
(0.00478024 0.000184606 -3.47886e-20)
(9.68268e-05 0.00158436 1.66784e-20)
(0.0302046 -0.000225384 0)
(0.011733 -6.79827e-06 4.30715e-20)
(0.0144009 0.00196487 0)
(0.00118105 -0.0066647 0)
(0.023744 0.00781946 0)
(0.00308416 -0.0251986 0)
(-0.00357222 -0.0304519 0)
(0.00834172 -0.0425919 -2.15619e-20)
(-0.00338225 0.0179393 0)
(0.0391396 -0.0163713 0)
(0.0117794 0.0125563 0)
(-0.0142096 -0.0524078 0)
(0.0182417 -0.0128181 0)
(0.0469189 -0.080204 0)
(0.0373895 -0.0806435 0)
(0 -0.225207 0)
(0 -0.119264 0)
(0 -0.119062 0)
(0 -0.117187 0)
(0 -0.117645 0)
(0 -0.117658 0)
(0 -0.117743 0)
(0 -0.118456 0)
(0 -0.118214 0)
(0 -0.118206 0)
(0 -0.11763 0)
(0 -0.117543 0)
(0 -0.116183 0)
(0 -0.115322 0)
(0 -0.114961 0)
(0 -0.118834 0)
(0 -0.120371 0)
(0 -0.12374 0)
(0 -0.121623 0)
(0 -0.121244 0)
(0 -0.120035 0)
(0 -0.119748 0)
(0 -0.119258 0)
(0 -0.119245 0)
(0 -0.117974 0)
(0 -0.117627 0)
(0 -0.116786 0)
(0 -0.115941 0)
(0 -0.11502 0)
(0 -0.115016 0)
(0 -0.113289 0)
)


// ************************************************************************* //
